;
;	File 'pep1_Protein_chain_A.itp' was generated
;	By user: rmelo (5010)
;	On host: cnbcgpu3
;	At date: Tue Oct  6 15:15:33 2020
;
;	This is a include topology file
;
;	Created by:
;	                    :-) GROMACS - gmx pdb2gmx, 2018.4 (-:
;	
;	Executable:   /usr/local/gromacs/bin/gmx
;	Data prefix:  /usr/local/gromacs
;	Working dir:  /storage/rmelo/RANK-TRAF6/REPLICA_1/01_SYSTEM_CONSTRUCTION
;	Command line:
;	  gmx pdb2gmx -f pep1_pqr.pdb -o pep1_pdb2gmx.gro -p pep1.top -water spc -ignh
;	Force field was read from the standard GROMACS share directory.
;

[ moleculetype ]
; Name            nrexcl
Protein_chain_A     3

[ atoms ]
;   nr       type  resnr residue  atom   cgnr     charge       mass  typeB    chargeB      massB
; residue 156 ALA rtp NALA q +1.0
     1         N3    156    ALA      N      1     0.1414      14.01   ; qtot 0.1414
     2          H    156    ALA     H1      2     0.1997      1.008   ; qtot 0.3411
     3          H    156    ALA     H2      3     0.1997      1.008   ; qtot 0.5408
     4          H    156    ALA     H3      4     0.1997      1.008   ; qtot 0.7405
     5         CT    156    ALA     CA      5     0.0962      12.01   ; qtot 0.8367
     6         HP    156    ALA     HA      6     0.0889      1.008   ; qtot 0.9256
     7         CT    156    ALA     CB      7    -0.0597      12.01   ; qtot 0.8659
     8         HC    156    ALA    HB1      8       0.03      1.008   ; qtot 0.8959
     9         HC    156    ALA    HB2      9       0.03      1.008   ; qtot 0.9259
    10         HC    156    ALA    HB3     10       0.03      1.008   ; qtot 0.9559
    11          C    156    ALA      C     11     0.6163      12.01   ; qtot 1.572
    12          O    156    ALA      O     12    -0.5722         16   ; qtot 1
; residue 157 ALA rtp ALA  q  0.0
    13          N    157    ALA      N     13    -0.4157      14.01   ; qtot 0.5843
    14          H    157    ALA      H     14     0.2719      1.008   ; qtot 0.8562
    15         CT    157    ALA     CA     15     0.0337      12.01   ; qtot 0.8899
    16         H1    157    ALA     HA     16     0.0823      1.008   ; qtot 0.9722
    17         CT    157    ALA     CB     17    -0.1825      12.01   ; qtot 0.7897
    18         HC    157    ALA    HB1     18     0.0603      1.008   ; qtot 0.85
    19         HC    157    ALA    HB2     19     0.0603      1.008   ; qtot 0.9103
    20         HC    157    ALA    HB3     20     0.0603      1.008   ; qtot 0.9706
    21          C    157    ALA      C     21     0.5973      12.01   ; qtot 1.568
    22          O    157    ALA      O     22    -0.5679         16   ; qtot 1
; residue 158 VAL rtp VAL  q  0.0
    23          N    158    VAL      N     23    -0.4157      14.01   ; qtot 0.5843
    24          H    158    VAL      H     24     0.2719      1.008   ; qtot 0.8562
    25         CT    158    VAL     CA     25    -0.0875      12.01   ; qtot 0.7687
    26         H1    158    VAL     HA     26     0.0969      1.008   ; qtot 0.8656
    27         CT    158    VAL     CB     27     0.2985      12.01   ; qtot 1.164
    28         HC    158    VAL     HB     28    -0.0297      1.008   ; qtot 1.134
    29         CT    158    VAL    CG1     29    -0.3192      12.01   ; qtot 0.8152
    30         HC    158    VAL   HG11     30     0.0791      1.008   ; qtot 0.8943
    31         HC    158    VAL   HG12     31     0.0791      1.008   ; qtot 0.9734
    32         HC    158    VAL   HG13     32     0.0791      1.008   ; qtot 1.052
    33         CT    158    VAL    CG2     33    -0.3192      12.01   ; qtot 0.7333
    34         HC    158    VAL   HG21     34     0.0791      1.008   ; qtot 0.8124
    35         HC    158    VAL   HG22     35     0.0791      1.008   ; qtot 0.8915
    36         HC    158    VAL   HG23     36     0.0791      1.008   ; qtot 0.9706
    37          C    158    VAL      C     37     0.5973      12.01   ; qtot 1.568
    38          O    158    VAL      O     38    -0.5679         16   ; qtot 1
; residue 159 ALA rtp ALA  q  0.0
    39          N    159    ALA      N     39    -0.4157      14.01   ; qtot 0.5843
    40          H    159    ALA      H     40     0.2719      1.008   ; qtot 0.8562
    41         CT    159    ALA     CA     41     0.0337      12.01   ; qtot 0.8899
    42         H1    159    ALA     HA     42     0.0823      1.008   ; qtot 0.9722
    43         CT    159    ALA     CB     43    -0.1825      12.01   ; qtot 0.7897
    44         HC    159    ALA    HB1     44     0.0603      1.008   ; qtot 0.85
    45         HC    159    ALA    HB2     45     0.0603      1.008   ; qtot 0.9103
    46         HC    159    ALA    HB3     46     0.0603      1.008   ; qtot 0.9706
    47          C    159    ALA      C     47     0.5973      12.01   ; qtot 1.568
    48          O    159    ALA      O     48    -0.5679         16   ; qtot 1
; residue 160 LEU rtp LEU  q  0.0
    49          N    160    LEU      N     49    -0.4157      14.01   ; qtot 0.5843
    50          H    160    LEU      H     50     0.2719      1.008   ; qtot 0.8562
    51         CT    160    LEU     CA     51    -0.0518      12.01   ; qtot 0.8044
    52         H1    160    LEU     HA     52     0.0922      1.008   ; qtot 0.8966
    53         CT    160    LEU     CB     53    -0.1102      12.01   ; qtot 0.7864
    54         HC    160    LEU    HB1     54     0.0457      1.008   ; qtot 0.8321
    55         HC    160    LEU    HB2     55     0.0457      1.008   ; qtot 0.8778
    56         CT    160    LEU     CG     56     0.3531      12.01   ; qtot 1.231
    57         HC    160    LEU     HG     57    -0.0361      1.008   ; qtot 1.195
    58         CT    160    LEU    CD1     58    -0.4121      12.01   ; qtot 0.7827
    59         HC    160    LEU   HD11     59        0.1      1.008   ; qtot 0.8827
    60         HC    160    LEU   HD12     60        0.1      1.008   ; qtot 0.9827
    61         HC    160    LEU   HD13     61        0.1      1.008   ; qtot 1.083
    62         CT    160    LEU    CD2     62    -0.4121      12.01   ; qtot 0.6706
    63         HC    160    LEU   HD21     63        0.1      1.008   ; qtot 0.7706
    64         HC    160    LEU   HD22     64        0.1      1.008   ; qtot 0.8706
    65         HC    160    LEU   HD23     65        0.1      1.008   ; qtot 0.9706
    66          C    160    LEU      C     66     0.5973      12.01   ; qtot 1.568
    67          O    160    LEU      O     67    -0.5679         16   ; qtot 1
; residue 161 LEU rtp LEU  q  0.0
    68          N    161    LEU      N     68    -0.4157      14.01   ; qtot 0.5843
    69          H    161    LEU      H     69     0.2719      1.008   ; qtot 0.8562
    70         CT    161    LEU     CA     70    -0.0518      12.01   ; qtot 0.8044
    71         H1    161    LEU     HA     71     0.0922      1.008   ; qtot 0.8966
    72         CT    161    LEU     CB     72    -0.1102      12.01   ; qtot 0.7864
    73         HC    161    LEU    HB1     73     0.0457      1.008   ; qtot 0.8321
    74         HC    161    LEU    HB2     74     0.0457      1.008   ; qtot 0.8778
    75         CT    161    LEU     CG     75     0.3531      12.01   ; qtot 1.231
    76         HC    161    LEU     HG     76    -0.0361      1.008   ; qtot 1.195
    77         CT    161    LEU    CD1     77    -0.4121      12.01   ; qtot 0.7827
    78         HC    161    LEU   HD11     78        0.1      1.008   ; qtot 0.8827
    79         HC    161    LEU   HD12     79        0.1      1.008   ; qtot 0.9827
    80         HC    161    LEU   HD13     80        0.1      1.008   ; qtot 1.083
    81         CT    161    LEU    CD2     81    -0.4121      12.01   ; qtot 0.6706
    82         HC    161    LEU   HD21     82        0.1      1.008   ; qtot 0.7706
    83         HC    161    LEU   HD22     83        0.1      1.008   ; qtot 0.8706
    84         HC    161    LEU   HD23     84        0.1      1.008   ; qtot 0.9706
    85          C    161    LEU      C     85     0.5973      12.01   ; qtot 1.568
    86          O    161    LEU      O     86    -0.5679         16   ; qtot 1
; residue 162 PRO rtp PRO  q  0.0
    87          N    162    PRO      N     87    -0.2548      14.01   ; qtot 0.7452
    88         CT    162    PRO     CD     88     0.0192      12.01   ; qtot 0.7644
    89         H1    162    PRO    HD1     89     0.0391      1.008   ; qtot 0.8035
    90         H1    162    PRO    HD2     90     0.0391      1.008   ; qtot 0.8426
    91         CT    162    PRO     CG     91     0.0189      12.01   ; qtot 0.8615
    92         HC    162    PRO    HG1     92     0.0213      1.008   ; qtot 0.8828
    93         HC    162    PRO    HG2     93     0.0213      1.008   ; qtot 0.9041
    94         CT    162    PRO     CB     94     -0.007      12.01   ; qtot 0.8971
    95         HC    162    PRO    HB1     95     0.0253      1.008   ; qtot 0.9224
    96         HC    162    PRO    HB2     96     0.0253      1.008   ; qtot 0.9477
    97         CT    162    PRO     CA     97    -0.0266      12.01   ; qtot 0.9211
    98         H1    162    PRO     HA     98     0.0641      1.008   ; qtot 0.9852
    99          C    162    PRO      C     99     0.5896      12.01   ; qtot 1.575
   100          O    162    PRO      O    100    -0.5748         16   ; qtot 1
; residue 163 ALA rtp ALA  q  0.0
   101          N    163    ALA      N    101    -0.4157      14.01   ; qtot 0.5843
   102          H    163    ALA      H    102     0.2719      1.008   ; qtot 0.8562
   103         CT    163    ALA     CA    103     0.0337      12.01   ; qtot 0.8899
   104         H1    163    ALA     HA    104     0.0823      1.008   ; qtot 0.9722
   105         CT    163    ALA     CB    105    -0.1825      12.01   ; qtot 0.7897
   106         HC    163    ALA    HB1    106     0.0603      1.008   ; qtot 0.85
   107         HC    163    ALA    HB2    107     0.0603      1.008   ; qtot 0.9103
   108         HC    163    ALA    HB3    108     0.0603      1.008   ; qtot 0.9706
   109          C    163    ALA      C    109     0.5973      12.01   ; qtot 1.568
   110          O    163    ALA      O    110    -0.5679         16   ; qtot 1
; residue 164 VAL rtp VAL  q  0.0
   111          N    164    VAL      N    111    -0.4157      14.01   ; qtot 0.5843
   112          H    164    VAL      H    112     0.2719      1.008   ; qtot 0.8562
   113         CT    164    VAL     CA    113    -0.0875      12.01   ; qtot 0.7687
   114         H1    164    VAL     HA    114     0.0969      1.008   ; qtot 0.8656
   115         CT    164    VAL     CB    115     0.2985      12.01   ; qtot 1.164
   116         HC    164    VAL     HB    116    -0.0297      1.008   ; qtot 1.134
   117         CT    164    VAL    CG1    117    -0.3192      12.01   ; qtot 0.8152
   118         HC    164    VAL   HG11    118     0.0791      1.008   ; qtot 0.8943
   119         HC    164    VAL   HG12    119     0.0791      1.008   ; qtot 0.9734
   120         HC    164    VAL   HG13    120     0.0791      1.008   ; qtot 1.053
   121         CT    164    VAL    CG2    121    -0.3192      12.01   ; qtot 0.7333
   122         HC    164    VAL   HG21    122     0.0791      1.008   ; qtot 0.8124
   123         HC    164    VAL   HG22    123     0.0791      1.008   ; qtot 0.8915
   124         HC    164    VAL   HG23    124     0.0791      1.008   ; qtot 0.9706
   125          C    164    VAL      C    125     0.5973      12.01   ; qtot 1.568
   126          O    164    VAL      O    126    -0.5679         16   ; qtot 1
; residue 165 LEU rtp LEU  q  0.0
   127          N    165    LEU      N    127    -0.4157      14.01   ; qtot 0.5843
   128          H    165    LEU      H    128     0.2719      1.008   ; qtot 0.8562
   129         CT    165    LEU     CA    129    -0.0518      12.01   ; qtot 0.8044
   130         H1    165    LEU     HA    130     0.0922      1.008   ; qtot 0.8966
   131         CT    165    LEU     CB    131    -0.1102      12.01   ; qtot 0.7864
   132         HC    165    LEU    HB1    132     0.0457      1.008   ; qtot 0.8321
   133         HC    165    LEU    HB2    133     0.0457      1.008   ; qtot 0.8778
   134         CT    165    LEU     CG    134     0.3531      12.01   ; qtot 1.231
   135         HC    165    LEU     HG    135    -0.0361      1.008   ; qtot 1.195
   136         CT    165    LEU    CD1    136    -0.4121      12.01   ; qtot 0.7827
   137         HC    165    LEU   HD11    137        0.1      1.008   ; qtot 0.8827
   138         HC    165    LEU   HD12    138        0.1      1.008   ; qtot 0.9827
   139         HC    165    LEU   HD13    139        0.1      1.008   ; qtot 1.083
   140         CT    165    LEU    CD2    140    -0.4121      12.01   ; qtot 0.6706
   141         HC    165    LEU   HD21    141        0.1      1.008   ; qtot 0.7706
   142         HC    165    LEU   HD22    142        0.1      1.008   ; qtot 0.8706
   143         HC    165    LEU   HD23    143        0.1      1.008   ; qtot 0.9706
   144          C    165    LEU      C    144     0.5973      12.01   ; qtot 1.568
   145          O    165    LEU      O    145    -0.5679         16   ; qtot 1
; residue 166 LEU rtp LEU  q  0.0
   146          N    166    LEU      N    146    -0.4157      14.01   ; qtot 0.5843
   147          H    166    LEU      H    147     0.2719      1.008   ; qtot 0.8562
   148         CT    166    LEU     CA    148    -0.0518      12.01   ; qtot 0.8044
   149         H1    166    LEU     HA    149     0.0922      1.008   ; qtot 0.8966
   150         CT    166    LEU     CB    150    -0.1102      12.01   ; qtot 0.7864
   151         HC    166    LEU    HB1    151     0.0457      1.008   ; qtot 0.8321
   152         HC    166    LEU    HB2    152     0.0457      1.008   ; qtot 0.8778
   153         CT    166    LEU     CG    153     0.3531      12.01   ; qtot 1.231
   154         HC    166    LEU     HG    154    -0.0361      1.008   ; qtot 1.195
   155         CT    166    LEU    CD1    155    -0.4121      12.01   ; qtot 0.7827
   156         HC    166    LEU   HD11    156        0.1      1.008   ; qtot 0.8827
   157         HC    166    LEU   HD12    157        0.1      1.008   ; qtot 0.9827
   158         HC    166    LEU   HD13    158        0.1      1.008   ; qtot 1.083
   159         CT    166    LEU    CD2    159    -0.4121      12.01   ; qtot 0.6706
   160         HC    166    LEU   HD21    160        0.1      1.008   ; qtot 0.7706
   161         HC    166    LEU   HD22    161        0.1      1.008   ; qtot 0.8706
   162         HC    166    LEU   HD23    162        0.1      1.008   ; qtot 0.9706
   163          C    166    LEU      C    163     0.5973      12.01   ; qtot 1.568
   164          O    166    LEU      O    164    -0.5679         16   ; qtot 1
; residue 167 ALA rtp ALA  q  0.0
   165          N    167    ALA      N    165    -0.4157      14.01   ; qtot 0.5843
   166          H    167    ALA      H    166     0.2719      1.008   ; qtot 0.8562
   167         CT    167    ALA     CA    167     0.0337      12.01   ; qtot 0.8899
   168         H1    167    ALA     HA    168     0.0823      1.008   ; qtot 0.9722
   169         CT    167    ALA     CB    169    -0.1825      12.01   ; qtot 0.7897
   170         HC    167    ALA    HB1    170     0.0603      1.008   ; qtot 0.85
   171         HC    167    ALA    HB2    171     0.0603      1.008   ; qtot 0.9103
   172         HC    167    ALA    HB3    172     0.0603      1.008   ; qtot 0.9706
   173          C    167    ALA      C    173     0.5973      12.01   ; qtot 1.568
   174          O    167    ALA      O    174    -0.5679         16   ; qtot 1
; residue 168 LEU rtp LEU  q  0.0
   175          N    168    LEU      N    175    -0.4157      14.01   ; qtot 0.5843
   176          H    168    LEU      H    176     0.2719      1.008   ; qtot 0.8562
   177         CT    168    LEU     CA    177    -0.0518      12.01   ; qtot 0.8044
   178         H1    168    LEU     HA    178     0.0922      1.008   ; qtot 0.8966
   179         CT    168    LEU     CB    179    -0.1102      12.01   ; qtot 0.7864
   180         HC    168    LEU    HB1    180     0.0457      1.008   ; qtot 0.8321
   181         HC    168    LEU    HB2    181     0.0457      1.008   ; qtot 0.8778
   182         CT    168    LEU     CG    182     0.3531      12.01   ; qtot 1.231
   183         HC    168    LEU     HG    183    -0.0361      1.008   ; qtot 1.195
   184         CT    168    LEU    CD1    184    -0.4121      12.01   ; qtot 0.7827
   185         HC    168    LEU   HD11    185        0.1      1.008   ; qtot 0.8827
   186         HC    168    LEU   HD12    186        0.1      1.008   ; qtot 0.9827
   187         HC    168    LEU   HD13    187        0.1      1.008   ; qtot 1.083
   188         CT    168    LEU    CD2    188    -0.4121      12.01   ; qtot 0.6706
   189         HC    168    LEU   HD21    189        0.1      1.008   ; qtot 0.7706
   190         HC    168    LEU   HD22    190        0.1      1.008   ; qtot 0.8706
   191         HC    168    LEU   HD23    191        0.1      1.008   ; qtot 0.9706
   192          C    168    LEU      C    192     0.5973      12.01   ; qtot 1.568
   193          O    168    LEU      O    193    -0.5679         16   ; qtot 1
; residue 169 LEU rtp LEU  q  0.0
   194          N    169    LEU      N    194    -0.4157      14.01   ; qtot 0.5843
   195          H    169    LEU      H    195     0.2719      1.008   ; qtot 0.8562
   196         CT    169    LEU     CA    196    -0.0518      12.01   ; qtot 0.8044
   197         H1    169    LEU     HA    197     0.0922      1.008   ; qtot 0.8966
   198         CT    169    LEU     CB    198    -0.1102      12.01   ; qtot 0.7864
   199         HC    169    LEU    HB1    199     0.0457      1.008   ; qtot 0.8321
   200         HC    169    LEU    HB2    200     0.0457      1.008   ; qtot 0.8778
   201         CT    169    LEU     CG    201     0.3531      12.01   ; qtot 1.231
   202         HC    169    LEU     HG    202    -0.0361      1.008   ; qtot 1.195
   203         CT    169    LEU    CD1    203    -0.4121      12.01   ; qtot 0.7827
   204         HC    169    LEU   HD11    204        0.1      1.008   ; qtot 0.8827
   205         HC    169    LEU   HD12    205        0.1      1.008   ; qtot 0.9827
   206         HC    169    LEU   HD13    206        0.1      1.008   ; qtot 1.083
   207         CT    169    LEU    CD2    207    -0.4121      12.01   ; qtot 0.6706
   208         HC    169    LEU   HD21    208        0.1      1.008   ; qtot 0.7706
   209         HC    169    LEU   HD22    209        0.1      1.008   ; qtot 0.8706
   210         HC    169    LEU   HD23    210        0.1      1.008   ; qtot 0.9706
   211          C    169    LEU      C    211     0.5973      12.01   ; qtot 1.568
   212          O    169    LEU      O    212    -0.5679         16   ; qtot 1
; residue 170 ALA rtp ALA  q  0.0
   213          N    170    ALA      N    213    -0.4157      14.01   ; qtot 0.5843
   214          H    170    ALA      H    214     0.2719      1.008   ; qtot 0.8562
   215         CT    170    ALA     CA    215     0.0337      12.01   ; qtot 0.8899
   216         H1    170    ALA     HA    216     0.0823      1.008   ; qtot 0.9722
   217         CT    170    ALA     CB    217    -0.1825      12.01   ; qtot 0.7897
   218         HC    170    ALA    HB1    218     0.0603      1.008   ; qtot 0.85
   219         HC    170    ALA    HB2    219     0.0603      1.008   ; qtot 0.9103
   220         HC    170    ALA    HB3    220     0.0603      1.008   ; qtot 0.9706
   221          C    170    ALA      C    221     0.5973      12.01   ; qtot 1.568
   222          O    170    ALA      O    222    -0.5679         16   ; qtot 1
; residue 171 PRO rtp PRO  q  0.0
   223          N    171    PRO      N    223    -0.2548      14.01   ; qtot 0.7452
   224         CT    171    PRO     CD    224     0.0192      12.01   ; qtot 0.7644
   225         H1    171    PRO    HD1    225     0.0391      1.008   ; qtot 0.8035
   226         H1    171    PRO    HD2    226     0.0391      1.008   ; qtot 0.8426
   227         CT    171    PRO     CG    227     0.0189      12.01   ; qtot 0.8615
   228         HC    171    PRO    HG1    228     0.0213      1.008   ; qtot 0.8828
   229         HC    171    PRO    HG2    229     0.0213      1.008   ; qtot 0.9041
   230         CT    171    PRO     CB    230     -0.007      12.01   ; qtot 0.8971
   231         HC    171    PRO    HB1    231     0.0253      1.008   ; qtot 0.9224
   232         HC    171    PRO    HB2    232     0.0253      1.008   ; qtot 0.9477
   233         CT    171    PRO     CA    233    -0.0266      12.01   ; qtot 0.9211
   234         H1    171    PRO     HA    234     0.0641      1.008   ; qtot 0.9852
   235          C    171    PRO      C    235     0.5896      12.01   ; qtot 1.575
   236          O    171    PRO      O    236    -0.5748         16   ; qtot 1
; residue 172 ARG rtp ARG  q +1.0
   237          N    172    ARG      N    237    -0.3479      14.01   ; qtot 0.6521
   238          H    172    ARG      H    238     0.2747      1.008   ; qtot 0.9268
   239         CT    172    ARG     CA    239    -0.2637      12.01   ; qtot 0.6631
   240         H1    172    ARG     HA    240      0.156      1.008   ; qtot 0.8191
   241         CT    172    ARG     CB    241    -0.0007      12.01   ; qtot 0.8184
   242         HC    172    ARG    HB1    242     0.0327      1.008   ; qtot 0.8511
   243         HC    172    ARG    HB2    243     0.0327      1.008   ; qtot 0.8838
   244         CT    172    ARG     CG    244      0.039      12.01   ; qtot 0.9228
   245         HC    172    ARG    HG1    245     0.0285      1.008   ; qtot 0.9513
   246         HC    172    ARG    HG2    246     0.0285      1.008   ; qtot 0.9798
   247         CT    172    ARG     CD    247     0.0486      12.01   ; qtot 1.028
   248         H1    172    ARG    HD1    248     0.0687      1.008   ; qtot 1.097
   249         H1    172    ARG    HD2    249     0.0687      1.008   ; qtot 1.166
   250         N2    172    ARG     NE    250    -0.5295      14.01   ; qtot 0.6363
   251          H    172    ARG     HE    251     0.3456      1.008   ; qtot 0.9819
   252         CA    172    ARG     CZ    252     0.8076      12.01   ; qtot 1.79
   253         N2    172    ARG    NH1    253    -0.8627      14.01   ; qtot 0.9268
   254          H    172    ARG   HH11    254     0.4478      1.008   ; qtot 1.375
   255          H    172    ARG   HH12    255     0.4478      1.008   ; qtot 1.822
   256         N2    172    ARG    NH2    256    -0.8627      14.01   ; qtot 0.9597
   257          H    172    ARG   HH21    257     0.4478      1.008   ; qtot 1.408
   258          H    172    ARG   HH22    258     0.4478      1.008   ; qtot 1.855
   259          C    172    ARG      C    259     0.7341      12.01   ; qtot 2.589
   260          O    172    ARG      O    260    -0.5894         16   ; qtot 2
; residue 173 GLN rtp GLN  q  0.0
   261          N    173    GLN      N    261    -0.4157      14.01   ; qtot 1.584
   262          H    173    GLN      H    262     0.2719      1.008   ; qtot 1.856
   263         CT    173    GLN     CA    263    -0.0031      12.01   ; qtot 1.853
   264         H1    173    GLN     HA    264      0.085      1.008   ; qtot 1.938
   265         CT    173    GLN     CB    265    -0.0036      12.01   ; qtot 1.935
   266         HC    173    GLN    HB1    266     0.0171      1.008   ; qtot 1.952
   267         HC    173    GLN    HB2    267     0.0171      1.008   ; qtot 1.969
   268         CT    173    GLN     CG    268    -0.0645      12.01   ; qtot 1.904
   269         HC    173    GLN    HG1    269     0.0352      1.008   ; qtot 1.939
   270         HC    173    GLN    HG2    270     0.0352      1.008   ; qtot 1.975
   271          C    173    GLN     CD    271     0.6951      12.01   ; qtot 2.67
   272          O    173    GLN    OE1    272    -0.6086         16   ; qtot 2.061
   273          N    173    GLN    NE2    273    -0.9407      14.01   ; qtot 1.12
   274          H    173    GLN   HE21    274     0.4251      1.008   ; qtot 1.546
   275          H    173    GLN   HE22    275     0.4251      1.008   ; qtot 1.971
   276          C    173    GLN      C    276     0.5973      12.01   ; qtot 2.568
   277          O    173    GLN      O    277    -0.5679         16   ; qtot 2
; residue 174 MET rtp MET  q  0.0
   278          N    174    MET      N    278    -0.4157      14.01   ; qtot 1.584
   279          H    174    MET      H    279     0.2719      1.008   ; qtot 1.856
   280         CT    174    MET     CA    280    -0.0237      12.01   ; qtot 1.833
   281         H1    174    MET     HA    281      0.088      1.008   ; qtot 1.921
   282         CT    174    MET     CB    282     0.0342      12.01   ; qtot 1.955
   283         HC    174    MET    HB1    283     0.0241      1.008   ; qtot 1.979
   284         HC    174    MET    HB2    284     0.0241      1.008   ; qtot 2.003
   285         CT    174    MET     CG    285     0.0018      12.01   ; qtot 2.005
   286         H1    174    MET    HG1    286      0.044      1.008   ; qtot 2.049
   287         H1    174    MET    HG2    287      0.044      1.008   ; qtot 2.093
   288          S    174    MET     SD    288    -0.2737      32.06   ; qtot 1.819
   289         CT    174    MET     CE    289    -0.0536      12.01   ; qtot 1.765
   290         H1    174    MET    HE1    290     0.0684      1.008   ; qtot 1.834
   291         H1    174    MET    HE2    291     0.0684      1.008   ; qtot 1.902
   292         H1    174    MET    HE3    292     0.0684      1.008   ; qtot 1.971
   293          C    174    MET      C    293     0.5973      12.01   ; qtot 2.568
   294          O    174    MET      O    294    -0.5679         16   ; qtot 2
; residue 175 PRO rtp PRO  q  0.0
   295          N    175    PRO      N    295    -0.2548      14.01   ; qtot 1.745
   296         CT    175    PRO     CD    296     0.0192      12.01   ; qtot 1.764
   297         H1    175    PRO    HD1    297     0.0391      1.008   ; qtot 1.804
   298         H1    175    PRO    HD2    298     0.0391      1.008   ; qtot 1.843
   299         CT    175    PRO     CG    299     0.0189      12.01   ; qtot 1.862
   300         HC    175    PRO    HG1    300     0.0213      1.008   ; qtot 1.883
   301         HC    175    PRO    HG2    301     0.0213      1.008   ; qtot 1.904
   302         CT    175    PRO     CB    302     -0.007      12.01   ; qtot 1.897
   303         HC    175    PRO    HB1    303     0.0253      1.008   ; qtot 1.922
   304         HC    175    PRO    HB2    304     0.0253      1.008   ; qtot 1.948
   305         CT    175    PRO     CA    305    -0.0266      12.01   ; qtot 1.921
   306         H1    175    PRO     HA    306     0.0641      1.008   ; qtot 1.985
   307          C    175    PRO      C    307     0.5896      12.01   ; qtot 2.575
   308          O    175    PRO      O    308    -0.5748         16   ; qtot 2
; residue 176 THR rtp THR  q  0.0
   309          N    176    THR      N    309    -0.4157      14.01   ; qtot 1.584
   310          H    176    THR      H    310     0.2719      1.008   ; qtot 1.856
   311         CT    176    THR     CA    311    -0.0389      12.01   ; qtot 1.817
   312         H1    176    THR     HA    312     0.1007      1.008   ; qtot 1.918
   313         CT    176    THR     CB    313     0.3654      12.01   ; qtot 2.283
   314         H1    176    THR     HB    314     0.0043      1.008   ; qtot 2.288
   315         CT    176    THR    CG2    315    -0.2438      12.01   ; qtot 2.044
   316         HC    176    THR   HG21    316     0.0642      1.008   ; qtot 2.108
   317         HC    176    THR   HG22    317     0.0642      1.008   ; qtot 2.172
   318         HC    176    THR   HG23    318     0.0642      1.008   ; qtot 2.237
   319         OH    176    THR    OG1    319    -0.6761         16   ; qtot 1.56
   320         HO    176    THR    HG1    320     0.4102      1.008   ; qtot 1.971
   321          C    176    THR      C    321     0.5973      12.01   ; qtot 2.568
   322          O    176    THR      O    322    -0.5679         16   ; qtot 2
; residue 177 GLU rtp GLU  q -1.0
   323          N    177    GLU      N    323    -0.5163      14.01   ; qtot 1.484
   324          H    177    GLU      H    324     0.2936      1.008   ; qtot 1.777
   325         CT    177    GLU     CA    325     0.0397      12.01   ; qtot 1.817
   326         H1    177    GLU     HA    326     0.1105      1.008   ; qtot 1.928
   327         CT    177    GLU     CB    327      0.056      12.01   ; qtot 1.984
   328         HC    177    GLU    HB1    328    -0.0173      1.008   ; qtot 1.966
   329         HC    177    GLU    HB2    329    -0.0173      1.008   ; qtot 1.949
   330         CT    177    GLU     CG    330     0.0136      12.01   ; qtot 1.963
   331         HC    177    GLU    HG1    331    -0.0425      1.008   ; qtot 1.92
   332         HC    177    GLU    HG2    332    -0.0425      1.008   ; qtot 1.878
   333          C    177    GLU     CD    333     0.8054      12.01   ; qtot 2.683
   334         O2    177    GLU    OE1    334    -0.8188         16   ; qtot 1.864
   335         O2    177    GLU    OE2    335    -0.8188         16   ; qtot 1.045
   336          C    177    GLU      C    336     0.5366      12.01   ; qtot 1.582
   337          O    177    GLU      O    337    -0.5819         16   ; qtot 1
; residue 178 ASP rtp ASP  q -1.0
   338          N    178    ASP      N    338    -0.5163      14.01   ; qtot 0.4837
   339          H    178    ASP      H    339     0.2936      1.008   ; qtot 0.7773
   340         CT    178    ASP     CA    340     0.0381      12.01   ; qtot 0.8154
   341         H1    178    ASP     HA    341      0.088      1.008   ; qtot 0.9034
   342         CT    178    ASP     CB    342    -0.0303      12.01   ; qtot 0.8731
   343         HC    178    ASP    HB1    343    -0.0122      1.008   ; qtot 0.8609
   344         HC    178    ASP    HB2    344    -0.0122      1.008   ; qtot 0.8487
   345          C    178    ASP     CG    345     0.7994      12.01   ; qtot 1.648
   346         O2    178    ASP    OD1    346    -0.8014         16   ; qtot 0.8467
   347         O2    178    ASP    OD2    347    -0.8014         16   ; qtot 0.0453
   348          C    178    ASP      C    348     0.5366      12.01   ; qtot 0.5819
   349          O    178    ASP      O    349    -0.5819         16   ; qtot 0
; residue 179 GLU rtp GLU  q -1.0
   350          N    179    GLU      N    350    -0.5163      14.01   ; qtot -0.5163
   351          H    179    GLU      H    351     0.2936      1.008   ; qtot -0.2227
   352         CT    179    GLU     CA    352     0.0397      12.01   ; qtot -0.183
   353         H1    179    GLU     HA    353     0.1105      1.008   ; qtot -0.0725
   354         CT    179    GLU     CB    354      0.056      12.01   ; qtot -0.0165
   355         HC    179    GLU    HB1    355    -0.0173      1.008   ; qtot -0.0338
   356         HC    179    GLU    HB2    356    -0.0173      1.008   ; qtot -0.0511
   357         CT    179    GLU     CG    357     0.0136      12.01   ; qtot -0.0375
   358         HC    179    GLU    HG1    358    -0.0425      1.008   ; qtot -0.08
   359         HC    179    GLU    HG2    359    -0.0425      1.008   ; qtot -0.1225
   360          C    179    GLU     CD    360     0.8054      12.01   ; qtot 0.6829
   361         O2    179    GLU    OE1    361    -0.8188         16   ; qtot -0.1359
   362         O2    179    GLU    OE2    362    -0.8188         16   ; qtot -0.9547
   363          C    179    GLU      C    363     0.5366      12.01   ; qtot -0.4181
   364          O    179    GLU      O    364    -0.5819         16   ; qtot -1
; residue 180 TYR rtp CTYR q -1.0
   365          N    180    TYR      N    365    -0.3821      14.01   ; qtot -1.382
   366          H    180    TYR      H    366     0.2681      1.008   ; qtot -1.114
   367         CT    180    TYR     CA    367    -0.2015      12.01   ; qtot -1.315
   368         H1    180    TYR     HA    368     0.1092      1.008   ; qtot -1.206
   369         CT    180    TYR     CB    369    -0.0752      12.01   ; qtot -1.281
   370         HC    180    TYR    HB1    370      0.049      1.008   ; qtot -1.232
   371         HC    180    TYR    HB2    371      0.049      1.008   ; qtot -1.183
   372         CA    180    TYR     CG    372     0.0243      12.01   ; qtot -1.159
   373         CA    180    TYR    CD1    373    -0.1922      12.01   ; qtot -1.351
   374         HA    180    TYR    HD1    374      0.178      1.008   ; qtot -1.173
   375         CA    180    TYR    CE1    375    -0.2458      12.01   ; qtot -1.419
   376         HA    180    TYR    HE1    376     0.1673      1.008   ; qtot -1.252
   377          C    180    TYR     CZ    377     0.3395      12.01   ; qtot -0.9124
   378         OH    180    TYR     OH    378    -0.5643         16   ; qtot -1.477
   379         HO    180    TYR     HH    379     0.4017      1.008   ; qtot -1.075
   380         CA    180    TYR    CE2    380    -0.2458      12.01   ; qtot -1.321
   381         HA    180    TYR    HE2    381     0.1673      1.008   ; qtot -1.153
   382         CA    180    TYR    CD2    382    -0.1922      12.01   ; qtot -1.346
   383         HA    180    TYR    HD2    383      0.178      1.008   ; qtot -1.168
   384          C    180    TYR      C    384     0.7817      12.01   ; qtot -0.386
   385         O2    180    TYR    OC1    385     -0.807         16   ; qtot -1.193
   386         O2    180    TYR    OC2    386     -0.807         16   ; qtot -2

[ bonds ]
;  ai    aj funct            c0            c1            c2            c3
    1     2     1 
    1     3     1 
    1     4     1 
    1     5     1 
    5     6     1 
    5     7     1 
    5    11     1 
    7     8     1 
    7     9     1 
    7    10     1 
   11    12     1 
   11    13     1 
   13    14     1 
   13    15     1 
   15    16     1 
   15    17     1 
   15    21     1 
   17    18     1 
   17    19     1 
   17    20     1 
   21    22     1 
   21    23     1 
   23    24     1 
   23    25     1 
   25    26     1 
   25    27     1 
   25    37     1 
   27    28     1 
   27    29     1 
   27    33     1 
   29    30     1 
   29    31     1 
   29    32     1 
   33    34     1 
   33    35     1 
   33    36     1 
   37    38     1 
   37    39     1 
   39    40     1 
   39    41     1 
   41    42     1 
   41    43     1 
   41    47     1 
   43    44     1 
   43    45     1 
   43    46     1 
   47    48     1 
   47    49     1 
   49    50     1 
   49    51     1 
   51    52     1 
   51    53     1 
   51    66     1 
   53    54     1 
   53    55     1 
   53    56     1 
   56    57     1 
   56    58     1 
   56    62     1 
   58    59     1 
   58    60     1 
   58    61     1 
   62    63     1 
   62    64     1 
   62    65     1 
   66    67     1 
   66    68     1 
   68    69     1 
   68    70     1 
   70    71     1 
   70    72     1 
   70    85     1 
   72    73     1 
   72    74     1 
   72    75     1 
   75    76     1 
   75    77     1 
   75    81     1 
   77    78     1 
   77    79     1 
   77    80     1 
   81    82     1 
   81    83     1 
   81    84     1 
   85    86     1 
   85    87     1 
   87    88     1 
   87    97     1 
   88    89     1 
   88    90     1 
   88    91     1 
   91    92     1 
   91    93     1 
   91    94     1 
   94    95     1 
   94    96     1 
   94    97     1 
   97    98     1 
   97    99     1 
   99   100     1 
   99   101     1 
  101   102     1 
  101   103     1 
  103   104     1 
  103   105     1 
  103   109     1 
  105   106     1 
  105   107     1 
  105   108     1 
  109   110     1 
  109   111     1 
  111   112     1 
  111   113     1 
  113   114     1 
  113   115     1 
  113   125     1 
  115   116     1 
  115   117     1 
  115   121     1 
  117   118     1 
  117   119     1 
  117   120     1 
  121   122     1 
  121   123     1 
  121   124     1 
  125   126     1 
  125   127     1 
  127   128     1 
  127   129     1 
  129   130     1 
  129   131     1 
  129   144     1 
  131   132     1 
  131   133     1 
  131   134     1 
  134   135     1 
  134   136     1 
  134   140     1 
  136   137     1 
  136   138     1 
  136   139     1 
  140   141     1 
  140   142     1 
  140   143     1 
  144   145     1 
  144   146     1 
  146   147     1 
  146   148     1 
  148   149     1 
  148   150     1 
  148   163     1 
  150   151     1 
  150   152     1 
  150   153     1 
  153   154     1 
  153   155     1 
  153   159     1 
  155   156     1 
  155   157     1 
  155   158     1 
  159   160     1 
  159   161     1 
  159   162     1 
  163   164     1 
  163   165     1 
  165   166     1 
  165   167     1 
  167   168     1 
  167   169     1 
  167   173     1 
  169   170     1 
  169   171     1 
  169   172     1 
  173   174     1 
  173   175     1 
  175   176     1 
  175   177     1 
  177   178     1 
  177   179     1 
  177   192     1 
  179   180     1 
  179   181     1 
  179   182     1 
  182   183     1 
  182   184     1 
  182   188     1 
  184   185     1 
  184   186     1 
  184   187     1 
  188   189     1 
  188   190     1 
  188   191     1 
  192   193     1 
  192   194     1 
  194   195     1 
  194   196     1 
  196   197     1 
  196   198     1 
  196   211     1 
  198   199     1 
  198   200     1 
  198   201     1 
  201   202     1 
  201   203     1 
  201   207     1 
  203   204     1 
  203   205     1 
  203   206     1 
  207   208     1 
  207   209     1 
  207   210     1 
  211   212     1 
  211   213     1 
  213   214     1 
  213   215     1 
  215   216     1 
  215   217     1 
  215   221     1 
  217   218     1 
  217   219     1 
  217   220     1 
  221   222     1 
  221   223     1 
  223   224     1 
  223   233     1 
  224   225     1 
  224   226     1 
  224   227     1 
  227   228     1 
  227   229     1 
  227   230     1 
  230   231     1 
  230   232     1 
  230   233     1 
  233   234     1 
  233   235     1 
  235   236     1 
  235   237     1 
  237   238     1 
  237   239     1 
  239   240     1 
  239   241     1 
  239   259     1 
  241   242     1 
  241   243     1 
  241   244     1 
  244   245     1 
  244   246     1 
  244   247     1 
  247   248     1 
  247   249     1 
  247   250     1 
  250   251     1 
  250   252     1 
  252   253     1 
  252   256     1 
  253   254     1 
  253   255     1 
  256   257     1 
  256   258     1 
  259   260     1 
  259   261     1 
  261   262     1 
  261   263     1 
  263   264     1 
  263   265     1 
  263   276     1 
  265   266     1 
  265   267     1 
  265   268     1 
  268   269     1 
  268   270     1 
  268   271     1 
  271   272     1 
  271   273     1 
  273   274     1 
  273   275     1 
  276   277     1 
  276   278     1 
  278   279     1 
  278   280     1 
  280   281     1 
  280   282     1 
  280   293     1 
  282   283     1 
  282   284     1 
  282   285     1 
  285   286     1 
  285   287     1 
  285   288     1 
  288   289     1 
  289   290     1 
  289   291     1 
  289   292     1 
  293   294     1 
  293   295     1 
  295   296     1 
  295   305     1 
  296   297     1 
  296   298     1 
  296   299     1 
  299   300     1 
  299   301     1 
  299   302     1 
  302   303     1 
  302   304     1 
  302   305     1 
  305   306     1 
  305   307     1 
  307   308     1 
  307   309     1 
  309   310     1 
  309   311     1 
  311   312     1 
  311   313     1 
  311   321     1 
  313   314     1 
  313   315     1 
  313   319     1 
  315   316     1 
  315   317     1 
  315   318     1 
  319   320     1 
  321   322     1 
  321   323     1 
  323   324     1 
  323   325     1 
  325   326     1 
  325   327     1 
  325   336     1 
  327   328     1 
  327   329     1 
  327   330     1 
  330   331     1 
  330   332     1 
  330   333     1 
  333   334     1 
  333   335     1 
  336   337     1 
  336   338     1 
  338   339     1 
  338   340     1 
  340   341     1 
  340   342     1 
  340   348     1 
  342   343     1 
  342   344     1 
  342   345     1 
  345   346     1 
  345   347     1 
  348   349     1 
  348   350     1 
  350   351     1 
  350   352     1 
  352   353     1 
  352   354     1 
  352   363     1 
  354   355     1 
  354   356     1 
  354   357     1 
  357   358     1 
  357   359     1 
  357   360     1 
  360   361     1 
  360   362     1 
  363   364     1 
  363   365     1 
  365   366     1 
  365   367     1 
  367   368     1 
  367   369     1 
  367   384     1 
  369   370     1 
  369   371     1 
  369   372     1 
  372   373     1 
  372   382     1 
  373   374     1 
  373   375     1 
  375   376     1 
  375   377     1 
  377   378     1 
  377   380     1 
  378   379     1 
  380   381     1 
  380   382     1 
  382   383     1 
  384   385     1 
  384   386     1 

[ pairs ]
;  ai    aj funct            c0            c1            c2            c3
    1     8     1 
    1     9     1 
    1    10     1 
    1    12     1 
    1    13     1 
    2     6     1 
    2     7     1 
    2    11     1 
    3     6     1 
    3     7     1 
    3    11     1 
    4     6     1 
    4     7     1 
    4    11     1 
    5    14     1 
    5    15     1 
    6     8     1 
    6     9     1 
    6    10     1 
    6    12     1 
    6    13     1 
    7    12     1 
    7    13     1 
    8    11     1 
    9    11     1 
   10    11     1 
   11    16     1 
   11    17     1 
   11    21     1 
   12    14     1 
   12    15     1 
   13    18     1 
   13    19     1 
   13    20     1 
   13    22     1 
   13    23     1 
   14    16     1 
   14    17     1 
   14    21     1 
   15    24     1 
   15    25     1 
   16    18     1 
   16    19     1 
   16    20     1 
   16    22     1 
   16    23     1 
   17    22     1 
   17    23     1 
   18    21     1 
   19    21     1 
   20    21     1 
   21    26     1 
   21    27     1 
   21    37     1 
   22    24     1 
   22    25     1 
   23    28     1 
   23    29     1 
   23    33     1 
   23    38     1 
   23    39     1 
   24    26     1 
   24    27     1 
   24    37     1 
   25    30     1 
   25    31     1 
   25    32     1 
   25    34     1 
   25    35     1 
   25    36     1 
   25    40     1 
   25    41     1 
   26    28     1 
   26    29     1 
   26    33     1 
   26    38     1 
   26    39     1 
   27    38     1 
   27    39     1 
   28    30     1 
   28    31     1 
   28    32     1 
   28    34     1 
   28    35     1 
   28    36     1 
   28    37     1 
   29    34     1 
   29    35     1 
   29    36     1 
   29    37     1 
   30    33     1 
   31    33     1 
   32    33     1 
   33    37     1 
   37    42     1 
   37    43     1 
   37    47     1 
   38    40     1 
   38    41     1 
   39    44     1 
   39    45     1 
   39    46     1 
   39    48     1 
   39    49     1 
   40    42     1 
   40    43     1 
   40    47     1 
   41    50     1 
   41    51     1 
   42    44     1 
   42    45     1 
   42    46     1 
   42    48     1 
   42    49     1 
   43    48     1 
   43    49     1 
   44    47     1 
   45    47     1 
   46    47     1 
   47    52     1 
   47    53     1 
   47    66     1 
   48    50     1 
   48    51     1 
   49    54     1 
   49    55     1 
   49    56     1 
   49    67     1 
   49    68     1 
   50    52     1 
   50    53     1 
   50    66     1 
   51    57     1 
   51    58     1 
   51    62     1 
   51    69     1 
   51    70     1 
   52    54     1 
   52    55     1 
   52    56     1 
   52    67     1 
   52    68     1 
   53    59     1 
   53    60     1 
   53    61     1 
   53    63     1 
   53    64     1 
   53    65     1 
   53    67     1 
   53    68     1 
   54    57     1 
   54    58     1 
   54    62     1 
   54    66     1 
   55    57     1 
   55    58     1 
   55    62     1 
   55    66     1 
   56    66     1 
   57    59     1 
   57    60     1 
   57    61     1 
   57    63     1 
   57    64     1 
   57    65     1 
   58    63     1 
   58    64     1 
   58    65     1 
   59    62     1 
   60    62     1 
   61    62     1 
   66    71     1 
   66    72     1 
   66    85     1 
   67    69     1 
   67    70     1 
   68    73     1 
   68    74     1 
   68    75     1 
   68    86     1 
   68    87     1 
   69    71     1 
   69    72     1 
   69    85     1 
   70    76     1 
   70    77     1 
   70    81     1 
   70    88     1 
   70    97     1 
   71    73     1 
   71    74     1 
   71    75     1 
   71    86     1 
   71    87     1 
   72    78     1 
   72    79     1 
   72    80     1 
   72    82     1 
   72    83     1 
   72    84     1 
   72    86     1 
   72    87     1 
   73    76     1 
   73    77     1 
   73    81     1 
   73    85     1 
   74    76     1 
   74    77     1 
   74    81     1 
   74    85     1 
   75    85     1 
   76    78     1 
   76    79     1 
   76    80     1 
   76    82     1 
   76    83     1 
   76    84     1 
   77    82     1 
   77    83     1 
   77    84     1 
   78    81     1 
   79    81     1 
   80    81     1 
   85    89     1 
   85    90     1 
   85    91     1 
   85    94     1 
   85    98     1 
   85    99     1 
   86    88     1 
   86    97     1 
   87    92     1 
   87    93     1 
   87    95     1 
   87    96     1 
   87   100     1 
   87   101     1 
   88    95     1 
   88    96     1 
   88    98     1 
   88    99     1 
   89    92     1 
   89    93     1 
   89    94     1 
   89    97     1 
   90    92     1 
   90    93     1 
   90    94     1 
   90    97     1 
   91    98     1 
   91    99     1 
   92    95     1 
   92    96     1 
   92    97     1 
   93    95     1 
   93    96     1 
   93    97     1 
   94   100     1 
   94   101     1 
   95    98     1 
   95    99     1 
   96    98     1 
   96    99     1 
   97   102     1 
   97   103     1 
   98   100     1 
   98   101     1 
   99   104     1 
   99   105     1 
   99   109     1 
  100   102     1 
  100   103     1 
  101   106     1 
  101   107     1 
  101   108     1 
  101   110     1 
  101   111     1 
  102   104     1 
  102   105     1 
  102   109     1 
  103   112     1 
  103   113     1 
  104   106     1 
  104   107     1 
  104   108     1 
  104   110     1 
  104   111     1 
  105   110     1 
  105   111     1 
  106   109     1 
  107   109     1 
  108   109     1 
  109   114     1 
  109   115     1 
  109   125     1 
  110   112     1 
  110   113     1 
  111   116     1 
  111   117     1 
  111   121     1 
  111   126     1 
  111   127     1 
  112   114     1 
  112   115     1 
  112   125     1 
  113   118     1 
  113   119     1 
  113   120     1 
  113   122     1 
  113   123     1 
  113   124     1 
  113   128     1 
  113   129     1 
  114   116     1 
  114   117     1 
  114   121     1 
  114   126     1 
  114   127     1 
  115   126     1 
  115   127     1 
  116   118     1 
  116   119     1 
  116   120     1 
  116   122     1 
  116   123     1 
  116   124     1 
  116   125     1 
  117   122     1 
  117   123     1 
  117   124     1 
  117   125     1 
  118   121     1 
  119   121     1 
  120   121     1 
  121   125     1 
  125   130     1 
  125   131     1 
  125   144     1 
  126   128     1 
  126   129     1 
  127   132     1 
  127   133     1 
  127   134     1 
  127   145     1 
  127   146     1 
  128   130     1 
  128   131     1 
  128   144     1 
  129   135     1 
  129   136     1 
  129   140     1 
  129   147     1 
  129   148     1 
  130   132     1 
  130   133     1 
  130   134     1 
  130   145     1 
  130   146     1 
  131   137     1 
  131   138     1 
  131   139     1 
  131   141     1 
  131   142     1 
  131   143     1 
  131   145     1 
  131   146     1 
  132   135     1 
  132   136     1 
  132   140     1 
  132   144     1 
  133   135     1 
  133   136     1 
  133   140     1 
  133   144     1 
  134   144     1 
  135   137     1 
  135   138     1 
  135   139     1 
  135   141     1 
  135   142     1 
  135   143     1 
  136   141     1 
  136   142     1 
  136   143     1 
  137   140     1 
  138   140     1 
  139   140     1 
  144   149     1 
  144   150     1 
  144   163     1 
  145   147     1 
  145   148     1 
  146   151     1 
  146   152     1 
  146   153     1 
  146   164     1 
  146   165     1 
  147   149     1 
  147   150     1 
  147   163     1 
  148   154     1 
  148   155     1 
  148   159     1 
  148   166     1 
  148   167     1 
  149   151     1 
  149   152     1 
  149   153     1 
  149   164     1 
  149   165     1 
  150   156     1 
  150   157     1 
  150   158     1 
  150   160     1 
  150   161     1 
  150   162     1 
  150   164     1 
  150   165     1 
  151   154     1 
  151   155     1 
  151   159     1 
  151   163     1 
  152   154     1 
  152   155     1 
  152   159     1 
  152   163     1 
  153   163     1 
  154   156     1 
  154   157     1 
  154   158     1 
  154   160     1 
  154   161     1 
  154   162     1 
  155   160     1 
  155   161     1 
  155   162     1 
  156   159     1 
  157   159     1 
  158   159     1 
  163   168     1 
  163   169     1 
  163   173     1 
  164   166     1 
  164   167     1 
  165   170     1 
  165   171     1 
  165   172     1 
  165   174     1 
  165   175     1 
  166   168     1 
  166   169     1 
  166   173     1 
  167   176     1 
  167   177     1 
  168   170     1 
  168   171     1 
  168   172     1 
  168   174     1 
  168   175     1 
  169   174     1 
  169   175     1 
  170   173     1 
  171   173     1 
  172   173     1 
  173   178     1 
  173   179     1 
  173   192     1 
  174   176     1 
  174   177     1 
  175   180     1 
  175   181     1 
  175   182     1 
  175   193     1 
  175   194     1 
  176   178     1 
  176   179     1 
  176   192     1 
  177   183     1 
  177   184     1 
  177   188     1 
  177   195     1 
  177   196     1 
  178   180     1 
  178   181     1 
  178   182     1 
  178   193     1 
  178   194     1 
  179   185     1 
  179   186     1 
  179   187     1 
  179   189     1 
  179   190     1 
  179   191     1 
  179   193     1 
  179   194     1 
  180   183     1 
  180   184     1 
  180   188     1 
  180   192     1 
  181   183     1 
  181   184     1 
  181   188     1 
  181   192     1 
  182   192     1 
  183   185     1 
  183   186     1 
  183   187     1 
  183   189     1 
  183   190     1 
  183   191     1 
  184   189     1 
  184   190     1 
  184   191     1 
  185   188     1 
  186   188     1 
  187   188     1 
  192   197     1 
  192   198     1 
  192   211     1 
  193   195     1 
  193   196     1 
  194   199     1 
  194   200     1 
  194   201     1 
  194   212     1 
  194   213     1 
  195   197     1 
  195   198     1 
  195   211     1 
  196   202     1 
  196   203     1 
  196   207     1 
  196   214     1 
  196   215     1 
  197   199     1 
  197   200     1 
  197   201     1 
  197   212     1 
  197   213     1 
  198   204     1 
  198   205     1 
  198   206     1 
  198   208     1 
  198   209     1 
  198   210     1 
  198   212     1 
  198   213     1 
  199   202     1 
  199   203     1 
  199   207     1 
  199   211     1 
  200   202     1 
  200   203     1 
  200   207     1 
  200   211     1 
  201   211     1 
  202   204     1 
  202   205     1 
  202   206     1 
  202   208     1 
  202   209     1 
  202   210     1 
  203   208     1 
  203   209     1 
  203   210     1 
  204   207     1 
  205   207     1 
  206   207     1 
  211   216     1 
  211   217     1 
  211   221     1 
  212   214     1 
  212   215     1 
  213   218     1 
  213   219     1 
  213   220     1 
  213   222     1 
  213   223     1 
  214   216     1 
  214   217     1 
  214   221     1 
  215   224     1 
  215   233     1 
  216   218     1 
  216   219     1 
  216   220     1 
  216   222     1 
  216   223     1 
  217   222     1 
  217   223     1 
  218   221     1 
  219   221     1 
  220   221     1 
  221   225     1 
  221   226     1 
  221   227     1 
  221   230     1 
  221   234     1 
  221   235     1 
  222   224     1 
  222   233     1 
  223   228     1 
  223   229     1 
  223   231     1 
  223   232     1 
  223   236     1 
  223   237     1 
  224   231     1 
  224   232     1 
  224   234     1 
  224   235     1 
  225   228     1 
  225   229     1 
  225   230     1 
  225   233     1 
  226   228     1 
  226   229     1 
  226   230     1 
  226   233     1 
  227   234     1 
  227   235     1 
  228   231     1 
  228   232     1 
  228   233     1 
  229   231     1 
  229   232     1 
  229   233     1 
  230   236     1 
  230   237     1 
  231   234     1 
  231   235     1 
  232   234     1 
  232   235     1 
  233   238     1 
  233   239     1 
  234   236     1 
  234   237     1 
  235   240     1 
  235   241     1 
  235   259     1 
  236   238     1 
  236   239     1 
  237   242     1 
  237   243     1 
  237   244     1 
  237   260     1 
  237   261     1 
  238   240     1 
  238   241     1 
  238   259     1 
  239   245     1 
  239   246     1 
  239   247     1 
  239   262     1 
  239   263     1 
  240   242     1 
  240   243     1 
  240   244     1 
  240   260     1 
  240   261     1 
  241   248     1 
  241   249     1 
  241   250     1 
  241   260     1 
  241   261     1 
  242   245     1 
  242   246     1 
  242   247     1 
  242   259     1 
  243   245     1 
  243   246     1 
  243   247     1 
  243   259     1 
  244   251     1 
  244   252     1 
  244   259     1 
  245   248     1 
  245   249     1 
  245   250     1 
  246   248     1 
  246   249     1 
  246   250     1 
  247   253     1 
  247   256     1 
  248   251     1 
  248   252     1 
  249   251     1 
  249   252     1 
  250   254     1 
  250   255     1 
  250   257     1 
  250   258     1 
  251   253     1 
  251   256     1 
  253   257     1 
  253   258     1 
  254   256     1 
  255   256     1 
  259   264     1 
  259   265     1 
  259   276     1 
  260   262     1 
  260   263     1 
  261   266     1 
  261   267     1 
  261   268     1 
  261   277     1 
  261   278     1 
  262   264     1 
  262   265     1 
  262   276     1 
  263   269     1 
  263   270     1 
  263   271     1 
  263   279     1 
  263   280     1 
  264   266     1 
  264   267     1 
  264   268     1 
  264   277     1 
  264   278     1 
  265   272     1 
  265   273     1 
  265   277     1 
  265   278     1 
  266   269     1 
  266   270     1 
  266   271     1 
  266   276     1 
  267   269     1 
  267   270     1 
  267   271     1 
  267   276     1 
  268   274     1 
  268   275     1 
  268   276     1 
  269   272     1 
  269   273     1 
  270   272     1 
  270   273     1 
  272   274     1 
  272   275     1 
  276   281     1 
  276   282     1 
  276   293     1 
  277   279     1 
  277   280     1 
  278   283     1 
  278   284     1 
  278   285     1 
  278   294     1 
  278   295     1 
  279   281     1 
  279   282     1 
  279   293     1 
  280   286     1 
  280   287     1 
  280   288     1 
  280   296     1 
  280   305     1 
  281   283     1 
  281   284     1 
  281   285     1 
  281   294     1 
  281   295     1 
  282   289     1 
  282   294     1 
  282   295     1 
  283   286     1 
  283   287     1 
  283   288     1 
  283   293     1 
  284   286     1 
  284   287     1 
  284   288     1 
  284   293     1 
  285   290     1 
  285   291     1 
  285   292     1 
  285   293     1 
  286   289     1 
  287   289     1 
  293   297     1 
  293   298     1 
  293   299     1 
  293   302     1 
  293   306     1 
  293   307     1 
  294   296     1 
  294   305     1 
  295   300     1 
  295   301     1 
  295   303     1 
  295   304     1 
  295   308     1 
  295   309     1 
  296   303     1 
  296   304     1 
  296   306     1 
  296   307     1 
  297   300     1 
  297   301     1 
  297   302     1 
  297   305     1 
  298   300     1 
  298   301     1 
  298   302     1 
  298   305     1 
  299   306     1 
  299   307     1 
  300   303     1 
  300   304     1 
  300   305     1 
  301   303     1 
  301   304     1 
  301   305     1 
  302   308     1 
  302   309     1 
  303   306     1 
  303   307     1 
  304   306     1 
  304   307     1 
  305   310     1 
  305   311     1 
  306   308     1 
  306   309     1 
  307   312     1 
  307   313     1 
  307   321     1 
  308   310     1 
  308   311     1 
  309   314     1 
  309   315     1 
  309   319     1 
  309   322     1 
  309   323     1 
  310   312     1 
  310   313     1 
  310   321     1 
  311   316     1 
  311   317     1 
  311   318     1 
  311   320     1 
  311   324     1 
  311   325     1 
  312   314     1 
  312   315     1 
  312   319     1 
  312   322     1 
  312   323     1 
  313   322     1 
  313   323     1 
  314   316     1 
  314   317     1 
  314   318     1 
  314   320     1 
  314   321     1 
  315   320     1 
  315   321     1 
  316   319     1 
  317   319     1 
  318   319     1 
  319   321     1 
  321   326     1 
  321   327     1 
  321   336     1 
  322   324     1 
  322   325     1 
  323   328     1 
  323   329     1 
  323   330     1 
  323   337     1 
  323   338     1 
  324   326     1 
  324   327     1 
  324   336     1 
  325   331     1 
  325   332     1 
  325   333     1 
  325   339     1 
  325   340     1 
  326   328     1 
  326   329     1 
  326   330     1 
  326   337     1 
  326   338     1 
  327   334     1 
  327   335     1 
  327   337     1 
  327   338     1 
  328   331     1 
  328   332     1 
  328   333     1 
  328   336     1 
  329   331     1 
  329   332     1 
  329   333     1 
  329   336     1 
  330   336     1 
  331   334     1 
  331   335     1 
  332   334     1 
  332   335     1 
  336   341     1 
  336   342     1 
  336   348     1 
  337   339     1 
  337   340     1 
  338   343     1 
  338   344     1 
  338   345     1 
  338   349     1 
  338   350     1 
  339   341     1 
  339   342     1 
  339   348     1 
  340   346     1 
  340   347     1 
  340   351     1 
  340   352     1 
  341   343     1 
  341   344     1 
  341   345     1 
  341   349     1 
  341   350     1 
  342   349     1 
  342   350     1 
  343   346     1 
  343   347     1 
  343   348     1 
  344   346     1 
  344   347     1 
  344   348     1 
  345   348     1 
  348   353     1 
  348   354     1 
  348   363     1 
  349   351     1 
  349   352     1 
  350   355     1 
  350   356     1 
  350   357     1 
  350   364     1 
  350   365     1 
  351   353     1 
  351   354     1 
  351   363     1 
  352   358     1 
  352   359     1 
  352   360     1 
  352   366     1 
  352   367     1 
  353   355     1 
  353   356     1 
  353   357     1 
  353   364     1 
  353   365     1 
  354   361     1 
  354   362     1 
  354   364     1 
  354   365     1 
  355   358     1 
  355   359     1 
  355   360     1 
  355   363     1 
  356   358     1 
  356   359     1 
  356   360     1 
  356   363     1 
  357   363     1 
  358   361     1 
  358   362     1 
  359   361     1 
  359   362     1 
  363   368     1 
  363   369     1 
  363   384     1 
  364   366     1 
  364   367     1 
  365   370     1 
  365   371     1 
  365   372     1 
  365   385     1 
  365   386     1 
  366   368     1 
  366   369     1 
  366   384     1 
  367   373     1 
  367   382     1 
  368   370     1 
  368   371     1 
  368   372     1 
  368   385     1 
  368   386     1 
  369   374     1 
  369   375     1 
  369   380     1 
  369   383     1 
  369   385     1 
  369   386     1 
  370   373     1 
  370   382     1 
  370   384     1 
  371   373     1 
  371   382     1 
  371   384     1 
  372   376     1 
  372   377     1 
  372   381     1 
  372   384     1 
  373   378     1 
  373   380     1 
  373   383     1 
  374   376     1 
  374   377     1 
  374   382     1 
  375   379     1 
  375   381     1 
  375   382     1 
  376   378     1 
  376   380     1 
  377   383     1 
  378   381     1 
  378   382     1 
  379   380     1 
  381   383     1 

[ angles ]
;  ai    aj    ak funct            c0            c1            c2            c3
    2     1     3     1 
    2     1     4     1 
    2     1     5     1 
    3     1     4     1 
    3     1     5     1 
    4     1     5     1 
    1     5     6     1 
    1     5     7     1 
    1     5    11     1 
    6     5     7     1 
    6     5    11     1 
    7     5    11     1 
    5     7     8     1 
    5     7     9     1 
    5     7    10     1 
    8     7     9     1 
    8     7    10     1 
    9     7    10     1 
    5    11    12     1 
    5    11    13     1 
   12    11    13     1 
   11    13    14     1 
   11    13    15     1 
   14    13    15     1 
   13    15    16     1 
   13    15    17     1 
   13    15    21     1 
   16    15    17     1 
   16    15    21     1 
   17    15    21     1 
   15    17    18     1 
   15    17    19     1 
   15    17    20     1 
   18    17    19     1 
   18    17    20     1 
   19    17    20     1 
   15    21    22     1 
   15    21    23     1 
   22    21    23     1 
   21    23    24     1 
   21    23    25     1 
   24    23    25     1 
   23    25    26     1 
   23    25    27     1 
   23    25    37     1 
   26    25    27     1 
   26    25    37     1 
   27    25    37     1 
   25    27    28     1 
   25    27    29     1 
   25    27    33     1 
   28    27    29     1 
   28    27    33     1 
   29    27    33     1 
   27    29    30     1 
   27    29    31     1 
   27    29    32     1 
   30    29    31     1 
   30    29    32     1 
   31    29    32     1 
   27    33    34     1 
   27    33    35     1 
   27    33    36     1 
   34    33    35     1 
   34    33    36     1 
   35    33    36     1 
   25    37    38     1 
   25    37    39     1 
   38    37    39     1 
   37    39    40     1 
   37    39    41     1 
   40    39    41     1 
   39    41    42     1 
   39    41    43     1 
   39    41    47     1 
   42    41    43     1 
   42    41    47     1 
   43    41    47     1 
   41    43    44     1 
   41    43    45     1 
   41    43    46     1 
   44    43    45     1 
   44    43    46     1 
   45    43    46     1 
   41    47    48     1 
   41    47    49     1 
   48    47    49     1 
   47    49    50     1 
   47    49    51     1 
   50    49    51     1 
   49    51    52     1 
   49    51    53     1 
   49    51    66     1 
   52    51    53     1 
   52    51    66     1 
   53    51    66     1 
   51    53    54     1 
   51    53    55     1 
   51    53    56     1 
   54    53    55     1 
   54    53    56     1 
   55    53    56     1 
   53    56    57     1 
   53    56    58     1 
   53    56    62     1 
   57    56    58     1 
   57    56    62     1 
   58    56    62     1 
   56    58    59     1 
   56    58    60     1 
   56    58    61     1 
   59    58    60     1 
   59    58    61     1 
   60    58    61     1 
   56    62    63     1 
   56    62    64     1 
   56    62    65     1 
   63    62    64     1 
   63    62    65     1 
   64    62    65     1 
   51    66    67     1 
   51    66    68     1 
   67    66    68     1 
   66    68    69     1 
   66    68    70     1 
   69    68    70     1 
   68    70    71     1 
   68    70    72     1 
   68    70    85     1 
   71    70    72     1 
   71    70    85     1 
   72    70    85     1 
   70    72    73     1 
   70    72    74     1 
   70    72    75     1 
   73    72    74     1 
   73    72    75     1 
   74    72    75     1 
   72    75    76     1 
   72    75    77     1 
   72    75    81     1 
   76    75    77     1 
   76    75    81     1 
   77    75    81     1 
   75    77    78     1 
   75    77    79     1 
   75    77    80     1 
   78    77    79     1 
   78    77    80     1 
   79    77    80     1 
   75    81    82     1 
   75    81    83     1 
   75    81    84     1 
   82    81    83     1 
   82    81    84     1 
   83    81    84     1 
   70    85    86     1 
   70    85    87     1 
   86    85    87     1 
   85    87    88     1 
   85    87    97     1 
   88    87    97     1 
   87    88    89     1 
   87    88    90     1 
   87    88    91     1 
   89    88    90     1 
   89    88    91     1 
   90    88    91     1 
   88    91    92     1 
   88    91    93     1 
   88    91    94     1 
   92    91    93     1 
   92    91    94     1 
   93    91    94     1 
   91    94    95     1 
   91    94    96     1 
   91    94    97     1 
   95    94    96     1 
   95    94    97     1 
   96    94    97     1 
   87    97    94     1 
   87    97    98     1 
   87    97    99     1 
   94    97    98     1 
   94    97    99     1 
   98    97    99     1 
   97    99   100     1 
   97    99   101     1 
  100    99   101     1 
   99   101   102     1 
   99   101   103     1 
  102   101   103     1 
  101   103   104     1 
  101   103   105     1 
  101   103   109     1 
  104   103   105     1 
  104   103   109     1 
  105   103   109     1 
  103   105   106     1 
  103   105   107     1 
  103   105   108     1 
  106   105   107     1 
  106   105   108     1 
  107   105   108     1 
  103   109   110     1 
  103   109   111     1 
  110   109   111     1 
  109   111   112     1 
  109   111   113     1 
  112   111   113     1 
  111   113   114     1 
  111   113   115     1 
  111   113   125     1 
  114   113   115     1 
  114   113   125     1 
  115   113   125     1 
  113   115   116     1 
  113   115   117     1 
  113   115   121     1 
  116   115   117     1 
  116   115   121     1 
  117   115   121     1 
  115   117   118     1 
  115   117   119     1 
  115   117   120     1 
  118   117   119     1 
  118   117   120     1 
  119   117   120     1 
  115   121   122     1 
  115   121   123     1 
  115   121   124     1 
  122   121   123     1 
  122   121   124     1 
  123   121   124     1 
  113   125   126     1 
  113   125   127     1 
  126   125   127     1 
  125   127   128     1 
  125   127   129     1 
  128   127   129     1 
  127   129   130     1 
  127   129   131     1 
  127   129   144     1 
  130   129   131     1 
  130   129   144     1 
  131   129   144     1 
  129   131   132     1 
  129   131   133     1 
  129   131   134     1 
  132   131   133     1 
  132   131   134     1 
  133   131   134     1 
  131   134   135     1 
  131   134   136     1 
  131   134   140     1 
  135   134   136     1 
  135   134   140     1 
  136   134   140     1 
  134   136   137     1 
  134   136   138     1 
  134   136   139     1 
  137   136   138     1 
  137   136   139     1 
  138   136   139     1 
  134   140   141     1 
  134   140   142     1 
  134   140   143     1 
  141   140   142     1 
  141   140   143     1 
  142   140   143     1 
  129   144   145     1 
  129   144   146     1 
  145   144   146     1 
  144   146   147     1 
  144   146   148     1 
  147   146   148     1 
  146   148   149     1 
  146   148   150     1 
  146   148   163     1 
  149   148   150     1 
  149   148   163     1 
  150   148   163     1 
  148   150   151     1 
  148   150   152     1 
  148   150   153     1 
  151   150   152     1 
  151   150   153     1 
  152   150   153     1 
  150   153   154     1 
  150   153   155     1 
  150   153   159     1 
  154   153   155     1 
  154   153   159     1 
  155   153   159     1 
  153   155   156     1 
  153   155   157     1 
  153   155   158     1 
  156   155   157     1 
  156   155   158     1 
  157   155   158     1 
  153   159   160     1 
  153   159   161     1 
  153   159   162     1 
  160   159   161     1 
  160   159   162     1 
  161   159   162     1 
  148   163   164     1 
  148   163   165     1 
  164   163   165     1 
  163   165   166     1 
  163   165   167     1 
  166   165   167     1 
  165   167   168     1 
  165   167   169     1 
  165   167   173     1 
  168   167   169     1 
  168   167   173     1 
  169   167   173     1 
  167   169   170     1 
  167   169   171     1 
  167   169   172     1 
  170   169   171     1 
  170   169   172     1 
  171   169   172     1 
  167   173   174     1 
  167   173   175     1 
  174   173   175     1 
  173   175   176     1 
  173   175   177     1 
  176   175   177     1 
  175   177   178     1 
  175   177   179     1 
  175   177   192     1 
  178   177   179     1 
  178   177   192     1 
  179   177   192     1 
  177   179   180     1 
  177   179   181     1 
  177   179   182     1 
  180   179   181     1 
  180   179   182     1 
  181   179   182     1 
  179   182   183     1 
  179   182   184     1 
  179   182   188     1 
  183   182   184     1 
  183   182   188     1 
  184   182   188     1 
  182   184   185     1 
  182   184   186     1 
  182   184   187     1 
  185   184   186     1 
  185   184   187     1 
  186   184   187     1 
  182   188   189     1 
  182   188   190     1 
  182   188   191     1 
  189   188   190     1 
  189   188   191     1 
  190   188   191     1 
  177   192   193     1 
  177   192   194     1 
  193   192   194     1 
  192   194   195     1 
  192   194   196     1 
  195   194   196     1 
  194   196   197     1 
  194   196   198     1 
  194   196   211     1 
  197   196   198     1 
  197   196   211     1 
  198   196   211     1 
  196   198   199     1 
  196   198   200     1 
  196   198   201     1 
  199   198   200     1 
  199   198   201     1 
  200   198   201     1 
  198   201   202     1 
  198   201   203     1 
  198   201   207     1 
  202   201   203     1 
  202   201   207     1 
  203   201   207     1 
  201   203   204     1 
  201   203   205     1 
  201   203   206     1 
  204   203   205     1 
  204   203   206     1 
  205   203   206     1 
  201   207   208     1 
  201   207   209     1 
  201   207   210     1 
  208   207   209     1 
  208   207   210     1 
  209   207   210     1 
  196   211   212     1 
  196   211   213     1 
  212   211   213     1 
  211   213   214     1 
  211   213   215     1 
  214   213   215     1 
  213   215   216     1 
  213   215   217     1 
  213   215   221     1 
  216   215   217     1 
  216   215   221     1 
  217   215   221     1 
  215   217   218     1 
  215   217   219     1 
  215   217   220     1 
  218   217   219     1 
  218   217   220     1 
  219   217   220     1 
  215   221   222     1 
  215   221   223     1 
  222   221   223     1 
  221   223   224     1 
  221   223   233     1 
  224   223   233     1 
  223   224   225     1 
  223   224   226     1 
  223   224   227     1 
  225   224   226     1 
  225   224   227     1 
  226   224   227     1 
  224   227   228     1 
  224   227   229     1 
  224   227   230     1 
  228   227   229     1 
  228   227   230     1 
  229   227   230     1 
  227   230   231     1 
  227   230   232     1 
  227   230   233     1 
  231   230   232     1 
  231   230   233     1 
  232   230   233     1 
  223   233   230     1 
  223   233   234     1 
  223   233   235     1 
  230   233   234     1 
  230   233   235     1 
  234   233   235     1 
  233   235   236     1 
  233   235   237     1 
  236   235   237     1 
  235   237   238     1 
  235   237   239     1 
  238   237   239     1 
  237   239   240     1 
  237   239   241     1 
  237   239   259     1 
  240   239   241     1 
  240   239   259     1 
  241   239   259     1 
  239   241   242     1 
  239   241   243     1 
  239   241   244     1 
  242   241   243     1 
  242   241   244     1 
  243   241   244     1 
  241   244   245     1 
  241   244   246     1 
  241   244   247     1 
  245   244   246     1 
  245   244   247     1 
  246   244   247     1 
  244   247   248     1 
  244   247   249     1 
  244   247   250     1 
  248   247   249     1 
  248   247   250     1 
  249   247   250     1 
  247   250   251     1 
  247   250   252     1 
  251   250   252     1 
  250   252   253     1 
  250   252   256     1 
  253   252   256     1 
  252   253   254     1 
  252   253   255     1 
  254   253   255     1 
  252   256   257     1 
  252   256   258     1 
  257   256   258     1 
  239   259   260     1 
  239   259   261     1 
  260   259   261     1 
  259   261   262     1 
  259   261   263     1 
  262   261   263     1 
  261   263   264     1 
  261   263   265     1 
  261   263   276     1 
  264   263   265     1 
  264   263   276     1 
  265   263   276     1 
  263   265   266     1 
  263   265   267     1 
  263   265   268     1 
  266   265   267     1 
  266   265   268     1 
  267   265   268     1 
  265   268   269     1 
  265   268   270     1 
  265   268   271     1 
  269   268   270     1 
  269   268   271     1 
  270   268   271     1 
  268   271   272     1 
  268   271   273     1 
  272   271   273     1 
  271   273   274     1 
  271   273   275     1 
  274   273   275     1 
  263   276   277     1 
  263   276   278     1 
  277   276   278     1 
  276   278   279     1 
  276   278   280     1 
  279   278   280     1 
  278   280   281     1 
  278   280   282     1 
  278   280   293     1 
  281   280   282     1 
  281   280   293     1 
  282   280   293     1 
  280   282   283     1 
  280   282   284     1 
  280   282   285     1 
  283   282   284     1 
  283   282   285     1 
  284   282   285     1 
  282   285   286     1 
  282   285   287     1 
  282   285   288     1 
  286   285   287     1 
  286   285   288     1 
  287   285   288     1 
  285   288   289     1 
  288   289   290     1 
  288   289   291     1 
  288   289   292     1 
  290   289   291     1 
  290   289   292     1 
  291   289   292     1 
  280   293   294     1 
  280   293   295     1 
  294   293   295     1 
  293   295   296     1 
  293   295   305     1 
  296   295   305     1 
  295   296   297     1 
  295   296   298     1 
  295   296   299     1 
  297   296   298     1 
  297   296   299     1 
  298   296   299     1 
  296   299   300     1 
  296   299   301     1 
  296   299   302     1 
  300   299   301     1 
  300   299   302     1 
  301   299   302     1 
  299   302   303     1 
  299   302   304     1 
  299   302   305     1 
  303   302   304     1 
  303   302   305     1 
  304   302   305     1 
  295   305   302     1 
  295   305   306     1 
  295   305   307     1 
  302   305   306     1 
  302   305   307     1 
  306   305   307     1 
  305   307   308     1 
  305   307   309     1 
  308   307   309     1 
  307   309   310     1 
  307   309   311     1 
  310   309   311     1 
  309   311   312     1 
  309   311   313     1 
  309   311   321     1 
  312   311   313     1 
  312   311   321     1 
  313   311   321     1 
  311   313   314     1 
  311   313   315     1 
  311   313   319     1 
  314   313   315     1 
  314   313   319     1 
  315   313   319     1 
  313   315   316     1 
  313   315   317     1 
  313   315   318     1 
  316   315   317     1 
  316   315   318     1 
  317   315   318     1 
  313   319   320     1 
  311   321   322     1 
  311   321   323     1 
  322   321   323     1 
  321   323   324     1 
  321   323   325     1 
  324   323   325     1 
  323   325   326     1 
  323   325   327     1 
  323   325   336     1 
  326   325   327     1 
  326   325   336     1 
  327   325   336     1 
  325   327   328     1 
  325   327   329     1 
  325   327   330     1 
  328   327   329     1 
  328   327   330     1 
  329   327   330     1 
  327   330   331     1 
  327   330   332     1 
  327   330   333     1 
  331   330   332     1 
  331   330   333     1 
  332   330   333     1 
  330   333   334     1 
  330   333   335     1 
  334   333   335     1 
  325   336   337     1 
  325   336   338     1 
  337   336   338     1 
  336   338   339     1 
  336   338   340     1 
  339   338   340     1 
  338   340   341     1 
  338   340   342     1 
  338   340   348     1 
  341   340   342     1 
  341   340   348     1 
  342   340   348     1 
  340   342   343     1 
  340   342   344     1 
  340   342   345     1 
  343   342   344     1 
  343   342   345     1 
  344   342   345     1 
  342   345   346     1 
  342   345   347     1 
  346   345   347     1 
  340   348   349     1 
  340   348   350     1 
  349   348   350     1 
  348   350   351     1 
  348   350   352     1 
  351   350   352     1 
  350   352   353     1 
  350   352   354     1 
  350   352   363     1 
  353   352   354     1 
  353   352   363     1 
  354   352   363     1 
  352   354   355     1 
  352   354   356     1 
  352   354   357     1 
  355   354   356     1 
  355   354   357     1 
  356   354   357     1 
  354   357   358     1 
  354   357   359     1 
  354   357   360     1 
  358   357   359     1 
  358   357   360     1 
  359   357   360     1 
  357   360   361     1 
  357   360   362     1 
  361   360   362     1 
  352   363   364     1 
  352   363   365     1 
  364   363   365     1 
  363   365   366     1 
  363   365   367     1 
  366   365   367     1 
  365   367   368     1 
  365   367   369     1 
  365   367   384     1 
  368   367   369     1 
  368   367   384     1 
  369   367   384     1 
  367   369   370     1 
  367   369   371     1 
  367   369   372     1 
  370   369   371     1 
  370   369   372     1 
  371   369   372     1 
  369   372   373     1 
  369   372   382     1 
  373   372   382     1 
  372   373   374     1 
  372   373   375     1 
  374   373   375     1 
  373   375   376     1 
  373   375   377     1 
  376   375   377     1 
  375   377   378     1 
  375   377   380     1 
  378   377   380     1 
  377   378   379     1 
  377   380   381     1 
  377   380   382     1 
  381   380   382     1 
  372   382   380     1 
  372   382   383     1 
  380   382   383     1 
  367   384   385     1 
  367   384   386     1 
  385   384   386     1 

[ dihedrals ]
;  ai    aj    ak    al funct            c0            c1            c2            c3            c4            c5
    2     1     5     6     9 
    2     1     5     7     9 
    2     1     5    11     9 
    3     1     5     6     9 
    3     1     5     7     9 
    3     1     5    11     9 
    4     1     5     6     9 
    4     1     5     7     9 
    4     1     5    11     9 
    1     5     7     8     9 
    1     5     7     9     9 
    1     5     7    10     9 
    6     5     7     8     9 
    6     5     7     9     9 
    6     5     7    10     9 
   11     5     7     8     9 
   11     5     7     9     9 
   11     5     7    10     9 
    1     5    11    12     9 
    1     5    11    13     9 
    6     5    11    12     9 
    6     5    11    13     9 
    7     5    11    12     9 
    7     5    11    13     9 
    5    11    13    14     9 
    5    11    13    15     9 
   12    11    13    14     9 
   12    11    13    15     9 
   11    13    15    16     9 
   11    13    15    17     9 
   11    13    15    21     9 
   14    13    15    16     9 
   14    13    15    17     9 
   14    13    15    21     9 
   13    15    17    18     9 
   13    15    17    19     9 
   13    15    17    20     9 
   16    15    17    18     9 
   16    15    17    19     9 
   16    15    17    20     9 
   21    15    17    18     9 
   21    15    17    19     9 
   21    15    17    20     9 
   13    15    21    22     9 
   13    15    21    23     9 
   16    15    21    22     9 
   16    15    21    23     9 
   17    15    21    22     9 
   17    15    21    23     9 
   15    21    23    24     9 
   15    21    23    25     9 
   22    21    23    24     9 
   22    21    23    25     9 
   21    23    25    26     9 
   21    23    25    27     9 
   21    23    25    37     9 
   24    23    25    26     9 
   24    23    25    27     9 
   24    23    25    37     9 
   23    25    27    28     9 
   23    25    27    29     9 
   23    25    27    33     9 
   26    25    27    28     9 
   26    25    27    29     9 
   26    25    27    33     9 
   37    25    27    28     9 
   37    25    27    29     9 
   37    25    27    33     9 
   23    25    37    38     9 
   23    25    37    39     9 
   26    25    37    38     9 
   26    25    37    39     9 
   27    25    37    38     9 
   27    25    37    39     9 
   25    27    29    30     9 
   25    27    29    31     9 
   25    27    29    32     9 
   28    27    29    30     9 
   28    27    29    31     9 
   28    27    29    32     9 
   33    27    29    30     9 
   33    27    29    31     9 
   33    27    29    32     9 
   25    27    33    34     9 
   25    27    33    35     9 
   25    27    33    36     9 
   28    27    33    34     9 
   28    27    33    35     9 
   28    27    33    36     9 
   29    27    33    34     9 
   29    27    33    35     9 
   29    27    33    36     9 
   25    37    39    40     9 
   25    37    39    41     9 
   38    37    39    40     9 
   38    37    39    41     9 
   37    39    41    42     9 
   37    39    41    43     9 
   37    39    41    47     9 
   40    39    41    42     9 
   40    39    41    43     9 
   40    39    41    47     9 
   39    41    43    44     9 
   39    41    43    45     9 
   39    41    43    46     9 
   42    41    43    44     9 
   42    41    43    45     9 
   42    41    43    46     9 
   47    41    43    44     9 
   47    41    43    45     9 
   47    41    43    46     9 
   39    41    47    48     9 
   39    41    47    49     9 
   42    41    47    48     9 
   42    41    47    49     9 
   43    41    47    48     9 
   43    41    47    49     9 
   41    47    49    50     9 
   41    47    49    51     9 
   48    47    49    50     9 
   48    47    49    51     9 
   47    49    51    52     9 
   47    49    51    53     9 
   47    49    51    66     9 
   50    49    51    52     9 
   50    49    51    53     9 
   50    49    51    66     9 
   66    51    53    56     9    torsion_LEU_C_CA_CB_CG_mult1
   66    51    53    56     9    torsion_LEU_C_CA_CB_CG_mult2
   66    51    53    56     9    torsion_LEU_C_CA_CB_CG_mult3
   49    51    53    54     9 
   49    51    53    55     9 
   49    51    53    56     9 
   52    51    53    54     9 
   52    51    53    55     9 
   52    51    53    56     9 
   66    51    53    54     9 
   66    51    53    55     9 
   49    51    66    67     9 
   49    51    66    68     9 
   52    51    66    67     9 
   52    51    66    68     9 
   53    51    66    67     9 
   53    51    66    68     9 
   51    53    56    57     9 
   51    53    56    58     9 
   51    53    56    62     9 
   54    53    56    57     9 
   54    53    56    58     9 
   54    53    56    62     9 
   55    53    56    57     9 
   55    53    56    58     9 
   55    53    56    62     9 
   53    56    58    59     9 
   53    56    58    60     9 
   53    56    58    61     9 
   57    56    58    59     9 
   57    56    58    60     9 
   57    56    58    61     9 
   62    56    58    59     9 
   62    56    58    60     9 
   62    56    58    61     9 
   53    56    62    63     9 
   53    56    62    64     9 
   53    56    62    65     9 
   57    56    62    63     9 
   57    56    62    64     9 
   57    56    62    65     9 
   58    56    62    63     9 
   58    56    62    64     9 
   58    56    62    65     9 
   51    66    68    69     9 
   51    66    68    70     9 
   67    66    68    69     9 
   67    66    68    70     9 
   66    68    70    71     9 
   66    68    70    72     9 
   66    68    70    85     9 
   69    68    70    71     9 
   69    68    70    72     9 
   69    68    70    85     9 
   85    70    72    75     9    torsion_LEU_C_CA_CB_CG_mult1
   85    70    72    75     9    torsion_LEU_C_CA_CB_CG_mult2
   85    70    72    75     9    torsion_LEU_C_CA_CB_CG_mult3
   68    70    72    73     9 
   68    70    72    74     9 
   68    70    72    75     9 
   71    70    72    73     9 
   71    70    72    74     9 
   71    70    72    75     9 
   85    70    72    73     9 
   85    70    72    74     9 
   68    70    85    86     9 
   68    70    85    87     9 
   71    70    85    86     9 
   71    70    85    87     9 
   72    70    85    86     9 
   72    70    85    87     9 
   70    72    75    76     9 
   70    72    75    77     9 
   70    72    75    81     9 
   73    72    75    76     9 
   73    72    75    77     9 
   73    72    75    81     9 
   74    72    75    76     9 
   74    72    75    77     9 
   74    72    75    81     9 
   72    75    77    78     9 
   72    75    77    79     9 
   72    75    77    80     9 
   76    75    77    78     9 
   76    75    77    79     9 
   76    75    77    80     9 
   81    75    77    78     9 
   81    75    77    79     9 
   81    75    77    80     9 
   72    75    81    82     9 
   72    75    81    83     9 
   72    75    81    84     9 
   76    75    81    82     9 
   76    75    81    83     9 
   76    75    81    84     9 
   77    75    81    82     9 
   77    75    81    83     9 
   77    75    81    84     9 
   70    85    87    88     9 
   70    85    87    97     9 
   86    85    87    88     9 
   86    85    87    97     9 
   85    87    88    89     9 
   85    87    88    90     9 
   85    87    88    91     9 
   97    87    88    89     9 
   97    87    88    90     9 
   97    87    88    91     9 
   85    87    97    94     9 
   85    87    97    98     9 
   85    87    97    99     9 
   88    87    97    94     9 
   88    87    97    98     9 
   88    87    97    99     9 
   87    88    91    92     9 
   87    88    91    93     9 
   87    88    91    94     9 
   89    88    91    92     9 
   89    88    91    93     9 
   89    88    91    94     9 
   90    88    91    92     9 
   90    88    91    93     9 
   90    88    91    94     9 
   88    91    94    95     9 
   88    91    94    96     9 
   88    91    94    97     9 
   92    91    94    95     9 
   92    91    94    96     9 
   92    91    94    97     9 
   93    91    94    95     9 
   93    91    94    96     9 
   93    91    94    97     9 
   91    94    97    87     9 
   91    94    97    98     9 
   91    94    97    99     9 
   95    94    97    87     9 
   95    94    97    98     9 
   95    94    97    99     9 
   96    94    97    87     9 
   96    94    97    98     9 
   96    94    97    99     9 
   87    97    99   100     9 
   87    97    99   101     9 
   94    97    99   100     9 
   94    97    99   101     9 
   98    97    99   100     9 
   98    97    99   101     9 
   97    99   101   102     9 
   97    99   101   103     9 
  100    99   101   102     9 
  100    99   101   103     9 
   99   101   103   104     9 
   99   101   103   105     9 
   99   101   103   109     9 
  102   101   103   104     9 
  102   101   103   105     9 
  102   101   103   109     9 
  101   103   105   106     9 
  101   103   105   107     9 
  101   103   105   108     9 
  104   103   105   106     9 
  104   103   105   107     9 
  104   103   105   108     9 
  109   103   105   106     9 
  109   103   105   107     9 
  109   103   105   108     9 
  101   103   109   110     9 
  101   103   109   111     9 
  104   103   109   110     9 
  104   103   109   111     9 
  105   103   109   110     9 
  105   103   109   111     9 
  103   109   111   112     9 
  103   109   111   113     9 
  110   109   111   112     9 
  110   109   111   113     9 
  109   111   113   114     9 
  109   111   113   115     9 
  109   111   113   125     9 
  112   111   113   114     9 
  112   111   113   115     9 
  112   111   113   125     9 
  111   113   115   116     9 
  111   113   115   117     9 
  111   113   115   121     9 
  114   113   115   116     9 
  114   113   115   117     9 
  114   113   115   121     9 
  125   113   115   116     9 
  125   113   115   117     9 
  125   113   115   121     9 
  111   113   125   126     9 
  111   113   125   127     9 
  114   113   125   126     9 
  114   113   125   127     9 
  115   113   125   126     9 
  115   113   125   127     9 
  113   115   117   118     9 
  113   115   117   119     9 
  113   115   117   120     9 
  116   115   117   118     9 
  116   115   117   119     9 
  116   115   117   120     9 
  121   115   117   118     9 
  121   115   117   119     9 
  121   115   117   120     9 
  113   115   121   122     9 
  113   115   121   123     9 
  113   115   121   124     9 
  116   115   121   122     9 
  116   115   121   123     9 
  116   115   121   124     9 
  117   115   121   122     9 
  117   115   121   123     9 
  117   115   121   124     9 
  113   125   127   128     9 
  113   125   127   129     9 
  126   125   127   128     9 
  126   125   127   129     9 
  125   127   129   130     9 
  125   127   129   131     9 
  125   127   129   144     9 
  128   127   129   130     9 
  128   127   129   131     9 
  128   127   129   144     9 
  144   129   131   134     9    torsion_LEU_C_CA_CB_CG_mult1
  144   129   131   134     9    torsion_LEU_C_CA_CB_CG_mult2
  144   129   131   134     9    torsion_LEU_C_CA_CB_CG_mult3
  127   129   131   132     9 
  127   129   131   133     9 
  127   129   131   134     9 
  130   129   131   132     9 
  130   129   131   133     9 
  130   129   131   134     9 
  144   129   131   132     9 
  144   129   131   133     9 
  127   129   144   145     9 
  127   129   144   146     9 
  130   129   144   145     9 
  130   129   144   146     9 
  131   129   144   145     9 
  131   129   144   146     9 
  129   131   134   135     9 
  129   131   134   136     9 
  129   131   134   140     9 
  132   131   134   135     9 
  132   131   134   136     9 
  132   131   134   140     9 
  133   131   134   135     9 
  133   131   134   136     9 
  133   131   134   140     9 
  131   134   136   137     9 
  131   134   136   138     9 
  131   134   136   139     9 
  135   134   136   137     9 
  135   134   136   138     9 
  135   134   136   139     9 
  140   134   136   137     9 
  140   134   136   138     9 
  140   134   136   139     9 
  131   134   140   141     9 
  131   134   140   142     9 
  131   134   140   143     9 
  135   134   140   141     9 
  135   134   140   142     9 
  135   134   140   143     9 
  136   134   140   141     9 
  136   134   140   142     9 
  136   134   140   143     9 
  129   144   146   147     9 
  129   144   146   148     9 
  145   144   146   147     9 
  145   144   146   148     9 
  144   146   148   149     9 
  144   146   148   150     9 
  144   146   148   163     9 
  147   146   148   149     9 
  147   146   148   150     9 
  147   146   148   163     9 
  163   148   150   153     9    torsion_LEU_C_CA_CB_CG_mult1
  163   148   150   153     9    torsion_LEU_C_CA_CB_CG_mult2
  163   148   150   153     9    torsion_LEU_C_CA_CB_CG_mult3
  146   148   150   151     9 
  146   148   150   152     9 
  146   148   150   153     9 
  149   148   150   151     9 
  149   148   150   152     9 
  149   148   150   153     9 
  163   148   150   151     9 
  163   148   150   152     9 
  146   148   163   164     9 
  146   148   163   165     9 
  149   148   163   164     9 
  149   148   163   165     9 
  150   148   163   164     9 
  150   148   163   165     9 
  148   150   153   154     9 
  148   150   153   155     9 
  148   150   153   159     9 
  151   150   153   154     9 
  151   150   153   155     9 
  151   150   153   159     9 
  152   150   153   154     9 
  152   150   153   155     9 
  152   150   153   159     9 
  150   153   155   156     9 
  150   153   155   157     9 
  150   153   155   158     9 
  154   153   155   156     9 
  154   153   155   157     9 
  154   153   155   158     9 
  159   153   155   156     9 
  159   153   155   157     9 
  159   153   155   158     9 
  150   153   159   160     9 
  150   153   159   161     9 
  150   153   159   162     9 
  154   153   159   160     9 
  154   153   159   161     9 
  154   153   159   162     9 
  155   153   159   160     9 
  155   153   159   161     9 
  155   153   159   162     9 
  148   163   165   166     9 
  148   163   165   167     9 
  164   163   165   166     9 
  164   163   165   167     9 
  163   165   167   168     9 
  163   165   167   169     9 
  163   165   167   173     9 
  166   165   167   168     9 
  166   165   167   169     9 
  166   165   167   173     9 
  165   167   169   170     9 
  165   167   169   171     9 
  165   167   169   172     9 
  168   167   169   170     9 
  168   167   169   171     9 
  168   167   169   172     9 
  173   167   169   170     9 
  173   167   169   171     9 
  173   167   169   172     9 
  165   167   173   174     9 
  165   167   173   175     9 
  168   167   173   174     9 
  168   167   173   175     9 
  169   167   173   174     9 
  169   167   173   175     9 
  167   173   175   176     9 
  167   173   175   177     9 
  174   173   175   176     9 
  174   173   175   177     9 
  173   175   177   178     9 
  173   175   177   179     9 
  173   175   177   192     9 
  176   175   177   178     9 
  176   175   177   179     9 
  176   175   177   192     9 
  192   177   179   182     9    torsion_LEU_C_CA_CB_CG_mult1
  192   177   179   182     9    torsion_LEU_C_CA_CB_CG_mult2
  192   177   179   182     9    torsion_LEU_C_CA_CB_CG_mult3
  175   177   179   180     9 
  175   177   179   181     9 
  175   177   179   182     9 
  178   177   179   180     9 
  178   177   179   181     9 
  178   177   179   182     9 
  192   177   179   180     9 
  192   177   179   181     9 
  175   177   192   193     9 
  175   177   192   194     9 
  178   177   192   193     9 
  178   177   192   194     9 
  179   177   192   193     9 
  179   177   192   194     9 
  177   179   182   183     9 
  177   179   182   184     9 
  177   179   182   188     9 
  180   179   182   183     9 
  180   179   182   184     9 
  180   179   182   188     9 
  181   179   182   183     9 
  181   179   182   184     9 
  181   179   182   188     9 
  179   182   184   185     9 
  179   182   184   186     9 
  179   182   184   187     9 
  183   182   184   185     9 
  183   182   184   186     9 
  183   182   184   187     9 
  188   182   184   185     9 
  188   182   184   186     9 
  188   182   184   187     9 
  179   182   188   189     9 
  179   182   188   190     9 
  179   182   188   191     9 
  183   182   188   189     9 
  183   182   188   190     9 
  183   182   188   191     9 
  184   182   188   189     9 
  184   182   188   190     9 
  184   182   188   191     9 
  177   192   194   195     9 
  177   192   194   196     9 
  193   192   194   195     9 
  193   192   194   196     9 
  192   194   196   197     9 
  192   194   196   198     9 
  192   194   196   211     9 
  195   194   196   197     9 
  195   194   196   198     9 
  195   194   196   211     9 
  211   196   198   201     9    torsion_LEU_C_CA_CB_CG_mult1
  211   196   198   201     9    torsion_LEU_C_CA_CB_CG_mult2
  211   196   198   201     9    torsion_LEU_C_CA_CB_CG_mult3
  194   196   198   199     9 
  194   196   198   200     9 
  194   196   198   201     9 
  197   196   198   199     9 
  197   196   198   200     9 
  197   196   198   201     9 
  211   196   198   199     9 
  211   196   198   200     9 
  194   196   211   212     9 
  194   196   211   213     9 
  197   196   211   212     9 
  197   196   211   213     9 
  198   196   211   212     9 
  198   196   211   213     9 
  196   198   201   202     9 
  196   198   201   203     9 
  196   198   201   207     9 
  199   198   201   202     9 
  199   198   201   203     9 
  199   198   201   207     9 
  200   198   201   202     9 
  200   198   201   203     9 
  200   198   201   207     9 
  198   201   203   204     9 
  198   201   203   205     9 
  198   201   203   206     9 
  202   201   203   204     9 
  202   201   203   205     9 
  202   201   203   206     9 
  207   201   203   204     9 
  207   201   203   205     9 
  207   201   203   206     9 
  198   201   207   208     9 
  198   201   207   209     9 
  198   201   207   210     9 
  202   201   207   208     9 
  202   201   207   209     9 
  202   201   207   210     9 
  203   201   207   208     9 
  203   201   207   209     9 
  203   201   207   210     9 
  196   211   213   214     9 
  196   211   213   215     9 
  212   211   213   214     9 
  212   211   213   215     9 
  211   213   215   216     9 
  211   213   215   217     9 
  211   213   215   221     9 
  214   213   215   216     9 
  214   213   215   217     9 
  214   213   215   221     9 
  213   215   217   218     9 
  213   215   217   219     9 
  213   215   217   220     9 
  216   215   217   218     9 
  216   215   217   219     9 
  216   215   217   220     9 
  221   215   217   218     9 
  221   215   217   219     9 
  221   215   217   220     9 
  213   215   221   222     9 
  213   215   221   223     9 
  216   215   221   222     9 
  216   215   221   223     9 
  217   215   221   222     9 
  217   215   221   223     9 
  215   221   223   224     9 
  215   221   223   233     9 
  222   221   223   224     9 
  222   221   223   233     9 
  221   223   224   225     9 
  221   223   224   226     9 
  221   223   224   227     9 
  233   223   224   225     9 
  233   223   224   226     9 
  233   223   224   227     9 
  221   223   233   230     9 
  221   223   233   234     9 
  221   223   233   235     9 
  224   223   233   230     9 
  224   223   233   234     9 
  224   223   233   235     9 
  223   224   227   228     9 
  223   224   227   229     9 
  223   224   227   230     9 
  225   224   227   228     9 
  225   224   227   229     9 
  225   224   227   230     9 
  226   224   227   228     9 
  226   224   227   229     9 
  226   224   227   230     9 
  224   227   230   231     9 
  224   227   230   232     9 
  224   227   230   233     9 
  228   227   230   231     9 
  228   227   230   232     9 
  228   227   230   233     9 
  229   227   230   231     9 
  229   227   230   232     9 
  229   227   230   233     9 
  227   230   233   223     9 
  227   230   233   234     9 
  227   230   233   235     9 
  231   230   233   223     9 
  231   230   233   234     9 
  231   230   233   235     9 
  232   230   233   223     9 
  232   230   233   234     9 
  232   230   233   235     9 
  223   233   235   236     9 
  223   233   235   237     9 
  230   233   235   236     9 
  230   233   235   237     9 
  234   233   235   236     9 
  234   233   235   237     9 
  233   235   237   238     9 
  233   235   237   239     9 
  236   235   237   238     9 
  236   235   237   239     9 
  235   237   239   240     9 
  235   237   239   241     9 
  235   237   239   259     9 
  238   237   239   240     9 
  238   237   239   241     9 
  238   237   239   259     9 
  237   239   241   242     9 
  237   239   241   243     9 
  237   239   241   244     9 
  240   239   241   242     9 
  240   239   241   243     9 
  240   239   241   244     9 
  259   239   241   242     9 
  259   239   241   243     9 
  259   239   241   244     9 
  237   239   259   260     9 
  237   239   259   261     9 
  240   239   259   260     9 
  240   239   259   261     9 
  241   239   259   260     9 
  241   239   259   261     9 
  239   241   244   245     9 
  239   241   244   246     9 
  239   241   244   247     9 
  242   241   244   245     9 
  242   241   244   246     9 
  242   241   244   247     9 
  243   241   244   245     9 
  243   241   244   246     9 
  243   241   244   247     9 
  241   244   247   248     9 
  241   244   247   249     9 
  241   244   247   250     9 
  245   244   247   248     9 
  245   244   247   249     9 
  245   244   247   250     9 
  246   244   247   248     9 
  246   244   247   249     9 
  246   244   247   250     9 
  244   247   250   251     9 
  244   247   250   252     9 
  248   247   250   251     9 
  248   247   250   252     9 
  249   247   250   251     9 
  249   247   250   252     9 
  247   250   252   253     9 
  247   250   252   256     9 
  251   250   252   253     9 
  251   250   252   256     9 
  250   252   253   254     9 
  250   252   253   255     9 
  256   252   253   254     9 
  256   252   253   255     9 
  250   252   256   257     9 
  250   252   256   258     9 
  253   252   256   257     9 
  253   252   256   258     9 
  239   259   261   262     9 
  239   259   261   263     9 
  260   259   261   262     9 
  260   259   261   263     9 
  259   261   263   264     9 
  259   261   263   265     9 
  259   261   263   276     9 
  262   261   263   264     9 
  262   261   263   265     9 
  262   261   263   276     9 
  261   263   265   266     9 
  261   263   265   267     9 
  261   263   265   268     9 
  264   263   265   266     9 
  264   263   265   267     9 
  264   263   265   268     9 
  276   263   265   266     9 
  276   263   265   267     9 
  276   263   265   268     9 
  261   263   276   277     9 
  261   263   276   278     9 
  264   263   276   277     9 
  264   263   276   278     9 
  265   263   276   277     9 
  265   263   276   278     9 
  263   265   268   269     9 
  263   265   268   270     9 
  263   265   268   271     9 
  266   265   268   269     9 
  266   265   268   270     9 
  266   265   268   271     9 
  267   265   268   269     9 
  267   265   268   270     9 
  267   265   268   271     9 
  265   268   271   272     9 
  265   268   271   273     9 
  269   268   271   272     9 
  269   268   271   273     9 
  270   268   271   272     9 
  270   268   271   273     9 
  268   271   273   274     9 
  268   271   273   275     9 
  272   271   273   274     9 
  272   271   273   275     9 
  263   276   278   279     9 
  263   276   278   280     9 
  277   276   278   279     9 
  277   276   278   280     9 
  276   278   280   281     9 
  276   278   280   282     9 
  276   278   280   293     9 
  279   278   280   281     9 
  279   278   280   282     9 
  279   278   280   293     9 
  278   280   282   283     9 
  278   280   282   284     9 
  278   280   282   285     9 
  281   280   282   283     9 
  281   280   282   284     9 
  281   280   282   285     9 
  293   280   282   283     9 
  293   280   282   284     9 
  293   280   282   285     9 
  278   280   293   294     9 
  278   280   293   295     9 
  281   280   293   294     9 
  281   280   293   295     9 
  282   280   293   294     9 
  282   280   293   295     9 
  280   282   285   286     9 
  280   282   285   287     9 
  280   282   285   288     9 
  283   282   285   286     9 
  283   282   285   287     9 
  283   282   285   288     9 
  284   282   285   286     9 
  284   282   285   287     9 
  284   282   285   288     9 
  282   285   288   289     9 
  286   285   288   289     9 
  287   285   288   289     9 
  285   288   289   290     9 
  285   288   289   291     9 
  285   288   289   292     9 
  280   293   295   296     9 
  280   293   295   305     9 
  294   293   295   296     9 
  294   293   295   305     9 
  293   295   296   297     9 
  293   295   296   298     9 
  293   295   296   299     9 
  305   295   296   297     9 
  305   295   296   298     9 
  305   295   296   299     9 
  293   295   305   302     9 
  293   295   305   306     9 
  293   295   305   307     9 
  296   295   305   302     9 
  296   295   305   306     9 
  296   295   305   307     9 
  295   296   299   300     9 
  295   296   299   301     9 
  295   296   299   302     9 
  297   296   299   300     9 
  297   296   299   301     9 
  297   296   299   302     9 
  298   296   299   300     9 
  298   296   299   301     9 
  298   296   299   302     9 
  296   299   302   303     9 
  296   299   302   304     9 
  296   299   302   305     9 
  300   299   302   303     9 
  300   299   302   304     9 
  300   299   302   305     9 
  301   299   302   303     9 
  301   299   302   304     9 
  301   299   302   305     9 
  299   302   305   295     9 
  299   302   305   306     9 
  299   302   305   307     9 
  303   302   305   295     9 
  303   302   305   306     9 
  303   302   305   307     9 
  304   302   305   295     9 
  304   302   305   306     9 
  304   302   305   307     9 
  295   305   307   308     9 
  295   305   307   309     9 
  302   305   307   308     9 
  302   305   307   309     9 
  306   305   307   308     9 
  306   305   307   309     9 
  305   307   309   310     9 
  305   307   309   311     9 
  308   307   309   310     9 
  308   307   309   311     9 
  307   309   311   312     9 
  307   309   311   313     9 
  307   309   311   321     9 
  310   309   311   312     9 
  310   309   311   313     9 
  310   309   311   321     9 
  309   311   313   314     9 
  309   311   313   315     9 
  309   311   313   319     9 
  312   311   313   314     9 
  312   311   313   315     9 
  312   311   313   319     9 
  321   311   313   314     9 
  321   311   313   315     9 
  321   311   313   319     9 
  309   311   321   322     9 
  309   311   321   323     9 
  312   311   321   322     9 
  312   311   321   323     9 
  313   311   321   322     9 
  313   311   321   323     9 
  311   313   315   316     9 
  311   313   315   317     9 
  311   313   315   318     9 
  314   313   315   316     9 
  314   313   315   317     9 
  314   313   315   318     9 
  319   313   315   316     9 
  319   313   315   317     9 
  319   313   315   318     9 
  311   313   319   320     9 
  314   313   319   320     9 
  315   313   319   320     9 
  311   321   323   324     9 
  311   321   323   325     9 
  322   321   323   324     9 
  322   321   323   325     9 
  321   323   325   326     9 
  321   323   325   327     9 
  321   323   325   336     9 
  324   323   325   326     9 
  324   323   325   327     9 
  324   323   325   336     9 
  323   325   327   328     9 
  323   325   327   329     9 
  323   325   327   330     9 
  326   325   327   328     9 
  326   325   327   329     9 
  326   325   327   330     9 
  336   325   327   328     9 
  336   325   327   329     9 
  336   325   327   330     9 
  323   325   336   337     9 
  323   325   336   338     9 
  326   325   336   337     9 
  326   325   336   338     9 
  327   325   336   337     9 
  327   325   336   338     9 
  325   327   330   331     9 
  325   327   330   332     9 
  325   327   330   333     9 
  328   327   330   331     9 
  328   327   330   332     9 
  328   327   330   333     9 
  329   327   330   331     9 
  329   327   330   332     9 
  329   327   330   333     9 
  327   330   333   334     9 
  327   330   333   335     9 
  331   330   333   334     9 
  331   330   333   335     9 
  332   330   333   334     9 
  332   330   333   335     9 
  325   336   338   339     9 
  325   336   338   340     9 
  337   336   338   339     9 
  337   336   338   340     9 
  336   338   340   341     9 
  336   338   340   342     9 
  336   338   340   348     9 
  339   338   340   341     9 
  339   338   340   342     9 
  339   338   340   348     9 
  338   340   342   345     9    torsion_ASP_N_CA_CB_CG_mult1
  338   340   342   345     9    torsion_ASP_N_CA_CB_CG_mult2
  338   340   342   345     9    torsion_ASP_N_CA_CB_CG_mult3
  338   340   342   345     9    torsion_ASP_N_CA_CB_CG_mult4
  338   340   342   345     9    torsion_ASP_N_CA_CB_CG_mult5
  338   340   342   345     9    torsion_ASP_N_CA_CB_CG_mult6
  338   340   342   343     9 
  338   340   342   344     9 
  341   340   342   343     9 
  341   340   342   344     9 
  341   340   342   345     9 
  348   340   342   343     9 
  348   340   342   344     9 
  348   340   342   345     9 
  338   340   348   349     9 
  338   340   348   350     9 
  341   340   348   349     9 
  341   340   348   350     9 
  342   340   348   349     9 
  342   340   348   350     9 
  340   342   345   346     9    torsion_ASP_CA_CB_CG_OD_mult1
  340   342   345   346     9    torsion_ASP_CA_CB_CG_OD_mult2
  340   342   345   346     9    torsion_ASP_CA_CB_CG_OD_mult3
  340   342   345   346     9    torsion_ASP_CA_CB_CG_OD_mult4
  340   342   345   346     9    torsion_ASP_CA_CB_CG_OD_mult5
  340   342   345   346     9    torsion_ASP_CA_CB_CG_OD_mult6
  340   342   345   347     9    torsion_ASP_CA_CB_CG_OD_mult1
  340   342   345   347     9    torsion_ASP_CA_CB_CG_OD_mult2
  340   342   345   347     9    torsion_ASP_CA_CB_CG_OD_mult3
  340   342   345   347     9    torsion_ASP_CA_CB_CG_OD_mult4
  340   342   345   347     9    torsion_ASP_CA_CB_CG_OD_mult5
  340   342   345   347     9    torsion_ASP_CA_CB_CG_OD_mult6
  343   342   345   346     9 
  343   342   345   347     9 
  344   342   345   346     9 
  344   342   345   347     9 
  340   348   350   351     9 
  340   348   350   352     9 
  349   348   350   351     9 
  349   348   350   352     9 
  348   350   352   353     9 
  348   350   352   354     9 
  348   350   352   363     9 
  351   350   352   353     9 
  351   350   352   354     9 
  351   350   352   363     9 
  350   352   354   355     9 
  350   352   354   356     9 
  350   352   354   357     9 
  353   352   354   355     9 
  353   352   354   356     9 
  353   352   354   357     9 
  363   352   354   355     9 
  363   352   354   356     9 
  363   352   354   357     9 
  350   352   363   364     9 
  350   352   363   365     9 
  353   352   363   364     9 
  353   352   363   365     9 
  354   352   363   364     9 
  354   352   363   365     9 
  352   354   357   358     9 
  352   354   357   359     9 
  352   354   357   360     9 
  355   354   357   358     9 
  355   354   357   359     9 
  355   354   357   360     9 
  356   354   357   358     9 
  356   354   357   359     9 
  356   354   357   360     9 
  354   357   360   361     9 
  354   357   360   362     9 
  358   357   360   361     9 
  358   357   360   362     9 
  359   357   360   361     9 
  359   357   360   362     9 
  352   363   365   366     9 
  352   363   365   367     9 
  364   363   365   366     9 
  364   363   365   367     9 
  363   365   367   368     9 
  363   365   367   369     9 
  363   365   367   384     9 
  366   365   367   368     9 
  366   365   367   369     9 
  366   365   367   384     9 
  365   367   369   370     9 
  365   367   369   371     9 
  365   367   369   372     9 
  368   367   369   370     9 
  368   367   369   371     9 
  368   367   369   372     9 
  384   367   369   370     9 
  384   367   369   371     9 
  384   367   369   372     9 
  365   367   384   385     9 
  365   367   384   386     9 
  368   367   384   385     9 
  368   367   384   386     9 
  369   367   384   385     9 
  369   367   384   386     9 
  367   369   372   373     9 
  367   369   372   382     9 
  370   369   372   373     9 
  370   369   372   382     9 
  371   369   372   373     9 
  371   369   372   382     9 
  369   372   373   374     9 
  369   372   373   375     9 
  382   372   373   374     9 
  382   372   373   375     9 
  369   372   382   380     9 
  369   372   382   383     9 
  373   372   382   380     9 
  373   372   382   383     9 
  372   373   375   376     9 
  372   373   375   377     9 
  374   373   375   376     9 
  374   373   375   377     9 
  373   375   377   378     9 
  373   375   377   380     9 
  376   375   377   378     9 
  376   375   377   380     9 
  375   377   378   379     9 
  380   377   378   379     9 
  375   377   380   381     9 
  375   377   380   382     9 
  378   377   380   381     9 
  378   377   380   382     9 
  377   380   382   372     9 
  377   380   382   383     9 
  381   380   382   372     9 
  381   380   382   383     9 

[ dihedrals ]
;  ai    aj    ak    al funct            c0            c1            c2            c3
    5    13    11    12     4 
   11    15    13    14     4 
   15    23    21    22     4 
   21    25    23    24     4 
   25    39    37    38     4 
   37    41    39    40     4 
   41    49    47    48     4 
   47    51    49    50     4 
   51    68    66    67     4 
   66    70    68    69     4 
   70    87    85    86     4 
   85    88    87    97     4 
   97   101    99   100     4 
   99   103   101   102     4 
  103   111   109   110     4 
  109   113   111   112     4 
  113   127   125   126     4 
  125   129   127   128     4 
  129   146   144   145     4 
  144   148   146   147     4 
  148   165   163   164     4 
  163   167   165   166     4 
  167   175   173   174     4 
  173   177   175   176     4 
  177   194   192   193     4 
  192   196   194   195     4 
  196   213   211   212     4 
  211   215   213   214     4 
  215   223   221   222     4 
  221   224   223   233     4 
  233   237   235   236     4 
  235   239   237   238     4 
  239   261   259   260     4 
  247   252   250   251     4 
  250   253   252   256     4 
  252   254   253   255     4 
  252   257   256   258     4 
  259   263   261   262     4 
  263   278   276   277     4 
  268   273   271   272     4 
  271   274   273   275     4 
  276   280   278   279     4 
  280   295   293   294     4 
  293   296   295   305     4 
  305   309   307   308     4 
  307   311   309   310     4 
  311   323   321   322     4 
  321   325   323   324     4 
  325   338   336   337     4 
  330   334   333   335     4 
  336   340   338   339     4 
  340   350   348   349     4 
  342   346   345   347     4 
  348   352   350   351     4 
  352   365   363   364     4 
  357   361   360   362     4 
  363   367   365   366     4 
  367   385   384   386     4 
  369   372   382   373     4 
  372   375   373   374     4 
  372   380   382   383     4 
  373   377   375   376     4 
  375   380   377   378     4 
  377   382   380   381     4 

; Include Position restraint file
#ifdef POSRES
#include "posre_Protein_chain_A.itp"
#endif

